   8   8   0   0
  0.2025000E+03  0.1500000E-08  0.1500000E-08  0.7200000E-09  0.5000000E-15
  1.000000000000000E-004
  CAR 
 unknown system                          
      2.91810244    -16.38982309  301     -2.87095976      1.00000000
    -16.390  0.0000E+00  0.0000E+00  0.0000E+00  0.0000E+00
    -16.325  0.0000E+00  0.0000E+00  0.0000E+00  0.0000E+00
    -16.261  0.0000E+00  0.0000E+00  0.0000E+00  0.0000E+00
    -16.197  0.0000E+00  0.0000E+00  0.0000E+00  0.0000E+00
    -16.132  0.0000E+00  0.0000E+00  0.0000E+00  0.0000E+00
    -16.068  0.0000E+00  0.0000E+00  0.0000E+00  0.0000E+00
    -16.004  0.0000E+00  0.0000E+00  0.0000E+00  0.0000E+00
    -15.939  0.0000E+00  0.0000E+00  0.0000E+00  0.0000E+00
    -15.875  0.0000E+00  0.0000E+00  0.0000E+00  0.0000E+00
    -15.811  0.0000E+00  0.0000E+00  0.0000E+00  0.0000E+00
    -15.746  0.0000E+00  0.0000E+00  0.0000E+00  0.0000E+00
    -15.682  0.0000E+00  0.0000E+00  0.0000E+00  0.0000E+00
    -15.618  0.0000E+00  0.0000E+00  0.0000E+00  0.0000E+00
    -15.553  0.3450E-14  0.3450E-14  0.2220E-15  0.2220E-15
    -15.489  0.1173E-12  0.1173E-12  0.7772E-14  0.7772E-14
    -15.424  0.3855E-11  0.3855E-11  0.2559E-12  0.2559E-12
    -15.360  0.1025E-09  0.1025E-09  0.6854E-11  0.6854E-11
    -15.296  0.2221E-08  0.2221E-08  0.1498E-09  0.1498E-09
    -15.231  0.3921E-07  0.3921E-07  0.2674E-08  0.2674E-08
    -15.167  0.5642E-06  0.5642E-06  0.3899E-07  0.3899E-07
    -15.103  0.6616E-05  0.6616E-05  0.4648E-06  0.4648E-06
    -15.038  0.6325E-04  0.6325E-04  0.4536E-05  0.4535E-05
    -14.974  0.4929E-03  0.4929E-03  0.3626E-04  0.3626E-04
    -14.910  0.3132E-02  0.3132E-02  0.2378E-03  0.2378E-03
    -14.845  0.1623E-01  0.1623E-01  0.1282E-02  0.1282E-02
    -14.781  0.6857E-01  0.6857E-01  0.5695E-02  0.5695E-02
    -14.716  0.2363E+00  0.2363E+00  0.2090E-01  0.2090E-01
    -14.652  0.6641E+00  0.6641E+00  0.6365E-01  0.6365E-01
    -14.588  0.1523E+01  0.1523E+01  0.1616E+00  0.1616E+00
    -14.523  0.2848E+01  0.2848E+01  0.3449E+00  0.3449E+00
    -14.459  0.4345E+01  0.4345E+01  0.6246E+00  0.6246E+00
    -14.395  0.5408E+01  0.5408E+01  0.9727E+00  0.9727E+00
    -14.330  0.5492E+01  0.5492E+01  0.1326E+01  0.1326E+01
    -14.266  0.4550E+01  0.4550E+01  0.1619E+01  0.1619E+01
    -14.202  0.3075E+01  0.3075E+01  0.1817E+01  0.1817E+01
    -14.137  0.1695E+01  0.1695E+01  0.1926E+01  0.1926E+01
    -14.073  0.7624E+00  0.7624E+00  0.1975E+01  0.1975E+01
    -14.009  0.2797E+00  0.2797E+00  0.1993E+01  0.1993E+01
    -13.944  0.8370E-01  0.8370E-01  0.1998E+01  0.1998E+01
    -13.880  0.2043E-01  0.2043E-01  0.2000E+01  0.2000E+01
    -13.815  0.4066E-02  0.4066E-02  0.2000E+01  0.2000E+01
    -13.751  0.6598E-03  0.6598E-03  0.2000E+01  0.2000E+01
    -13.687  0.8731E-04  0.8731E-04  0.2000E+01  0.2000E+01
    -13.622  0.9419E-05  0.9419E-05  0.2000E+01  0.2000E+01
    -13.558  0.8283E-06  0.8283E-06  0.2000E+01  0.2000E+01
    -13.494  0.5937E-07  0.5937E-07  0.2000E+01  0.2000E+01
    -13.429  0.3468E-08  0.3468E-08  0.2000E+01  0.2000E+01
    -13.365  0.1651E-09  0.1651E-09  0.2000E+01  0.2000E+01
    -13.301  0.6403E-11  0.6403E-11  0.2000E+01  0.2000E+01
    -13.236  0.2001E-12  0.2001E-12  0.2000E+01  0.2000E+01
    -13.172  0.6900E-14  0.6900E-14  0.2000E+01  0.2000E+01
    -13.107  0.0000E+00  0.0000E+00  0.2000E+01  0.2000E+01
    -13.043  0.0000E+00  0.0000E+00  0.2000E+01  0.2000E+01
    -12.979  0.0000E+00  0.0000E+00  0.2000E+01  0.2000E+01
    -12.914  0.0000E+00  0.0000E+00  0.2000E+01  0.2000E+01
    -12.850  0.0000E+00  0.0000E+00  0.2000E+01  0.2000E+01
    -12.786  0.0000E+00  0.0000E+00  0.2000E+01  0.2000E+01
    -12.721  0.0000E+00  0.0000E+00  0.2000E+01  0.2000E+01
    -12.657  0.1035E-13  0.1035E-13  0.2000E+01  0.2000E+01
    -12.593  0.4520E-12  0.4520E-12  0.2000E+01  0.2000E+01
    -12.528  0.1413E-10  0.1413E-10  0.2000E+01  0.2000E+01
    -12.464  0.3622E-09  0.3621E-09  0.2000E+01  0.2000E+01
    -12.400  0.7562E-08  0.7562E-08  0.2000E+01  0.2000E+01
    -12.335  0.1287E-06  0.1287E-06  0.2000E+01  0.2000E+01
    -12.271  0.1784E-05  0.1784E-05  0.2000E+01  0.2000E+01
    -12.206  0.2017E-04  0.2017E-04  0.2000E+01  0.2000E+01
    -12.142  0.1859E-03  0.1859E-03  0.2000E+01  0.2000E+01
    -12.078  0.1396E-02  0.1396E-02  0.2000E+01  0.2000E+01
    -12.013  0.8551E-02  0.8551E-02  0.2001E+01  0.2001E+01
    -11.949  0.4271E-01  0.4271E-01  0.2003E+01  0.2003E+01
    -11.885  0.1739E+00  0.1739E+00  0.2015E+01  0.2015E+01
    -11.820  0.5778E+00  0.5778E+00  0.2052E+01  0.2052E+01
    -11.756  0.1566E+01  0.1566E+01  0.2153E+01  0.2153E+01
    -11.692  0.3460E+01  0.3460E+01  0.2375E+01  0.2375E+01
    -11.627  0.6239E+01  0.6239E+01  0.2777E+01  0.2777E+01
    -11.563  0.9176E+01  0.9176E+01  0.3367E+01  0.3367E+01
    -11.498  0.1101E+02  0.1101E+02  0.4076E+01  0.4076E+01
    -11.434  0.1078E+02  0.1078E+02  0.4770E+01  0.4770E+01
    -11.370  0.8608E+01  0.8608E+01  0.5324E+01  0.5324E+01
    -11.305  0.5608E+01  0.5608E+01  0.5685E+01  0.5685E+01
    -11.241  0.2981E+01  0.2981E+01  0.5876E+01  0.5876E+01
    -11.177  0.1292E+01  0.1292E+01  0.5960E+01  0.5960E+01
    -11.112  0.4570E+00  0.4570E+00  0.5989E+01  0.5989E+01
    -11.048  0.1318E+00  0.1318E+00  0.5998E+01  0.5998E+01
    -10.984  0.3101E-01  0.3101E-01  0.6000E+01  0.6000E+01
    -10.919  0.5950E-02  0.5950E-02  0.6000E+01  0.6000E+01
    -10.855  0.9308E-03  0.9308E-03  0.6000E+01  0.6000E+01
    -10.791  0.1187E-03  0.1187E-03  0.6000E+01  0.6000E+01
    -10.726  0.1235E-04  0.1235E-04  0.6000E+01  0.6000E+01
    -10.662  0.1046E-05  0.1046E-05  0.6000E+01  0.6000E+01
    -10.597  0.7229E-07  0.7229E-07  0.6000E+01  0.6000E+01
    -10.533  0.4070E-08  0.4070E-08  0.6000E+01  0.6000E+01
    -10.469  0.1867E-09  0.1867E-09  0.6000E+01  0.6000E+01
    -10.404  0.6983E-11  0.6983E-11  0.6000E+01  0.6000E+01
    -10.340  0.2139E-12  0.2139E-12  0.6000E+01  0.6000E+01
    -10.276  0.6900E-14  0.6900E-14  0.6000E+01  0.6000E+01
    -10.211  0.0000E+00  0.0000E+00  0.6000E+01  0.6000E+01
    -10.147  0.0000E+00  0.0000E+00  0.6000E+01  0.6000E+01
    -10.083  0.0000E+00  0.0000E+00  0.6000E+01  0.6000E+01
    -10.018  0.0000E+00  0.0000E+00  0.6000E+01  0.6000E+01
     -9.954  0.0000E+00  0.0000E+00  0.6000E+01  0.6000E+01
     -9.889  0.0000E+00  0.0000E+00  0.6000E+01  0.6000E+01
     -9.825  0.0000E+00  0.0000E+00  0.6000E+01  0.6000E+01
     -9.761  0.0000E+00  0.0000E+00  0.6000E+01  0.6000E+01
     -9.696  0.0000E+00  0.0000E+00  0.6000E+01  0.6000E+01
     -9.632  0.0000E+00  0.0000E+00  0.6000E+01  0.6000E+01
     -9.568  0.0000E+00  0.0000E+00  0.6000E+01  0.6000E+01
     -9.503  0.0000E+00  0.0000E+00  0.6000E+01  0.6000E+01
     -9.439  0.0000E+00  0.0000E+00  0.6000E+01  0.6000E+01
     -9.375  0.0000E+00  0.0000E+00  0.6000E+01  0.6000E+01
     -9.310  0.0000E+00  0.0000E+00  0.6000E+01  0.6000E+01
     -9.246  0.0000E+00  0.0000E+00  0.6000E+01  0.6000E+01
     -9.182  0.0000E+00  0.0000E+00  0.6000E+01  0.6000E+01
     -9.117  0.0000E+00  0.0000E+00  0.6000E+01  0.6000E+01
     -9.053  0.0000E+00  0.0000E+00  0.6000E+01  0.6000E+01
     -8.988  0.0000E+00  0.0000E+00  0.6000E+01  0.6000E+01
     -8.924  0.0000E+00  0.0000E+00  0.6000E+01  0.6000E+01
     -8.860  0.0000E+00  0.0000E+00  0.6000E+01  0.6000E+01
     -8.795  0.0000E+00  0.0000E+00  0.6000E+01  0.6000E+01
     -8.731  0.0000E+00  0.0000E+00  0.6000E+01  0.6000E+01
     -8.667  0.0000E+00  0.0000E+00  0.6000E+01  0.6000E+01
     -8.602  0.0000E+00  0.0000E+00  0.6000E+01  0.6000E+01
     -8.538  0.0000E+00  0.0000E+00  0.6000E+01  0.6000E+01
     -8.474  0.0000E+00  0.0000E+00  0.6000E+01  0.6000E+01
     -8.409  0.0000E+00  0.0000E+00  0.6000E+01  0.6000E+01
     -8.345  0.0000E+00  0.0000E+00  0.6000E+01  0.6000E+01
     -8.280  0.0000E+00  0.0000E+00  0.6000E+01  0.6000E+01
     -8.216  0.0000E+00  0.0000E+00  0.6000E+01  0.6000E+01
     -8.152  0.0000E+00  0.0000E+00  0.6000E+01  0.6000E+01
     -8.087  0.0000E+00  0.0000E+00  0.6000E+01  0.6000E+01
     -8.023  0.0000E+00  0.0000E+00  0.6000E+01  0.6000E+01
     -7.959  0.0000E+00  0.0000E+00  0.6000E+01  0.6000E+01
     -7.894  0.0000E+00  0.0000E+00  0.6000E+01  0.6000E+01
     -7.830  0.0000E+00  0.0000E+00  0.6000E+01  0.6000E+01
     -7.766  0.0000E+00  0.0000E+00  0.6000E+01  0.6000E+01
     -7.701  0.0000E+00  0.0000E+00  0.6000E+01  0.6000E+01
     -7.637  0.0000E+00  0.0000E+00  0.6000E+01  0.6000E+01
     -7.573  0.0000E+00  0.0000E+00  0.6000E+01  0.6000E+01
     -7.508  0.0000E+00  0.0000E+00  0.6000E+01  0.6000E+01
     -7.444  0.0000E+00  0.0000E+00  0.6000E+01  0.6000E+01
     -7.379  0.0000E+00  0.0000E+00  0.6000E+01  0.6000E+01
     -7.315  0.0000E+00  0.0000E+00  0.6000E+01  0.6000E+01
     -7.251  0.0000E+00  0.0000E+00  0.6000E+01  0.6000E+01
     -7.186  0.0000E+00  0.0000E+00  0.6000E+01  0.6000E+01
     -7.122  0.0000E+00  0.0000E+00  0.6000E+01  0.6000E+01
     -7.058  0.0000E+00  0.0000E+00  0.6000E+01  0.6000E+01
     -6.993  0.0000E+00  0.0000E+00  0.6000E+01  0.6000E+01
     -6.929  0.0000E+00  0.0000E+00  0.6000E+01  0.6000E+01
     -6.865  0.0000E+00  0.0000E+00  0.6000E+01  0.6000E+01
     -6.800  0.0000E+00  0.0000E+00  0.6000E+01  0.6000E+01
     -6.736  0.0000E+00  0.0000E+00  0.6000E+01  0.6000E+01
     -6.672  0.0000E+00  0.0000E+00  0.6000E+01  0.6000E+01
     -6.607  0.0000E+00  0.0000E+00  0.6000E+01  0.6000E+01
     -6.543  0.0000E+00  0.0000E+00  0.6000E+01  0.6000E+01
     -6.478  0.0000E+00  0.0000E+00  0.6000E+01  0.6000E+01
     -6.414  0.0000E+00  0.0000E+00  0.6000E+01  0.6000E+01
     -6.350  0.0000E+00  0.0000E+00  0.6000E+01  0.6000E+01
     -6.285  0.0000E+00  0.0000E+00  0.6000E+01  0.6000E+01
     -6.221  0.0000E+00  0.0000E+00  0.6000E+01  0.6000E+01
     -6.157  0.0000E+00  0.0000E+00  0.6000E+01  0.6000E+01
     -6.092  0.0000E+00  0.0000E+00  0.6000E+01  0.6000E+01
     -6.028  0.0000E+00  0.0000E+00  0.6000E+01  0.6000E+01
     -5.964  0.0000E+00  0.0000E+00  0.6000E+01  0.6000E+01
     -5.899  0.0000E+00  0.0000E+00  0.6000E+01  0.6000E+01
     -5.835  0.0000E+00  0.0000E+00  0.6000E+01  0.6000E+01
     -5.770  0.0000E+00  0.0000E+00  0.6000E+01  0.6000E+01
     -5.706  0.0000E+00  0.0000E+00  0.6000E+01  0.6000E+01
     -5.642  0.0000E+00  0.0000E+00  0.6000E+01  0.6000E+01
     -5.577  0.0000E+00  0.0000E+00  0.6000E+01  0.6000E+01
     -5.513  0.0000E+00  0.0000E+00  0.6000E+01  0.6000E+01
     -5.449  0.0000E+00  0.0000E+00  0.6000E+01  0.6000E+01
     -5.384  0.0000E+00  0.0000E+00  0.6000E+01  0.6000E+01
     -5.320  0.0000E+00  0.0000E+00  0.6000E+01  0.6000E+01
     -5.256  0.0000E+00  0.0000E+00  0.6000E+01  0.6000E+01
     -5.191  0.0000E+00  0.0000E+00  0.6000E+01  0.6000E+01
     -5.127  0.0000E+00  0.0000E+00  0.6000E+01  0.6000E+01
     -5.063  0.0000E+00  0.0000E+00  0.6000E+01  0.6000E+01
     -4.998  0.0000E+00  0.0000E+00  0.6000E+01  0.6000E+01
     -4.934  0.0000E+00  0.0000E+00  0.6000E+01  0.6000E+01
     -4.869  0.0000E+00  0.0000E+00  0.6000E+01  0.6000E+01
     -4.805  0.0000E+00  0.0000E+00  0.6000E+01  0.6000E+01
     -4.741  0.0000E+00  0.0000E+00  0.6000E+01  0.6000E+01
     -4.676  0.0000E+00  0.0000E+00  0.6000E+01  0.6000E+01
     -4.612  0.0000E+00  0.0000E+00  0.6000E+01  0.6000E+01
     -4.548  0.0000E+00  0.0000E+00  0.6000E+01  0.6000E+01
     -4.483  0.0000E+00  0.0000E+00  0.6000E+01  0.6000E+01
     -4.419  0.0000E+00  0.0000E+00  0.6000E+01  0.6000E+01
     -4.355  0.0000E+00  0.0000E+00  0.6000E+01  0.6000E+01
     -4.290  0.0000E+00  0.0000E+00  0.6000E+01  0.6000E+01
     -4.226  0.0000E+00  0.0000E+00  0.6000E+01  0.6000E+01
     -4.161  0.0000E+00  0.0000E+00  0.6000E+01  0.6000E+01
     -4.097  0.0000E+00  0.0000E+00  0.6000E+01  0.6000E+01
     -4.033  0.6900E-14  0.6900E-14  0.6000E+01  0.6000E+01
     -3.968  0.2553E-12  0.2553E-12  0.6000E+01  0.6000E+01
     -3.904  0.8359E-11  0.8359E-11  0.6000E+01  0.6000E+01
     -3.840  0.2212E-09  0.2211E-09  0.6000E+01  0.6000E+01
     -3.775  0.4768E-08  0.4768E-08  0.6000E+01  0.6000E+01
     -3.711  0.8377E-07  0.8377E-07  0.6000E+01  0.6000E+01
     -3.647  0.1199E-05  0.1199E-05  0.6000E+01  0.6000E+01
     -3.582  0.1400E-04  0.1400E-04  0.6000E+01  0.6000E+01
     -3.518  0.1332E-03  0.1332E-03  0.6000E+01  0.6000E+01
     -3.454  0.1033E-02  0.1033E-02  0.6000E+01  0.6000E+01
     -3.389  0.6530E-02  0.6530E-02  0.6000E+01  0.6000E+01
     -3.325  0.3367E-01  0.3367E-01  0.6003E+01  0.6003E+01
     -3.260  0.1416E+00  0.1416E+00  0.6012E+01  0.6012E+01
     -3.196  0.4855E+00  0.4855E+00  0.6043E+01  0.6043E+01
     -3.132  0.1358E+01  0.1358E+01  0.6130E+01  0.6130E+01
     -3.067  0.3098E+01  0.3098E+01  0.6330E+01  0.6330E+01
     -3.003  0.5767E+01  0.5767E+01  0.6701E+01  0.6701E+01
     -2.939  0.8756E+01  0.8756E+01  0.7265E+01  0.7265E+01
     -2.874  0.1085E+02  0.1085E+02  0.7963E+01  0.7963E+01
     -2.810  0.1096E+02  0.1096E+02  0.8668E+01  0.8668E+01
     -2.746  0.9036E+01  0.9036E+01  0.9250E+01  0.9250E+01
     -2.681  0.6077E+01  0.6077E+01  0.9641E+01  0.9641E+01
     -2.617  0.3334E+01  0.3334E+01  0.9855E+01  0.9855E+01
     -2.552  0.1492E+01  0.1492E+01  0.9951E+01  0.9951E+01
     -2.488  0.5449E+00  0.5449E+00  0.9986E+01  0.9986E+01
     -2.424  0.1623E+00  0.1623E+00  0.9997E+01  0.9997E+01
     -2.359  0.3941E-01  0.3941E-01  0.9999E+01  0.9999E+01
     -2.295  0.7805E-02  0.7805E-02  0.1000E+02  0.1000E+02
     -2.231  0.1261E-02  0.1261E-02  0.1000E+02  0.1000E+02
     -2.166  0.1660E-03  0.1660E-03  0.1000E+02  0.1000E+02
     -2.102  0.1782E-04  0.1782E-04  0.1000E+02  0.1000E+02
     -2.038  0.1560E-05  0.1560E-05  0.1000E+02  0.1000E+02
     -1.973  0.1112E-06  0.1112E-06  0.1000E+02  0.1000E+02
     -1.909  0.6467E-08  0.6467E-08  0.1000E+02  0.1000E+02
     -1.845  0.3063E-09  0.3063E-09  0.1000E+02  0.1000E+02
     -1.780  0.1182E-10  0.1182E-10  0.1000E+02  0.1000E+02
     -1.716  0.3726E-12  0.3726E-12  0.1000E+02  0.1000E+02
     -1.651  0.1380E-13  0.1380E-13  0.1000E+02  0.1000E+02
     -1.587  0.0000E+00  0.0000E+00  0.1000E+02  0.1000E+02
     -1.523  0.0000E+00  0.0000E+00  0.1000E+02  0.1000E+02
     -1.458  0.0000E+00  0.0000E+00  0.1000E+02  0.1000E+02
     -1.394  0.0000E+00  0.0000E+00  0.1000E+02  0.1000E+02
     -1.330  0.0000E+00  0.0000E+00  0.1000E+02  0.1000E+02
     -1.265  0.2933E-13  0.2933E-13  0.1000E+02  0.1000E+02
     -1.201  0.1085E-11  0.1078E-11  0.1000E+02  0.1000E+02
     -1.137  0.3307E-10  0.3287E-10  0.1000E+02  0.1000E+02
     -1.072  0.8212E-09  0.8165E-09  0.1000E+02  0.1000E+02
     -1.008  0.1663E-07  0.1654E-07  0.1000E+02  0.1000E+02
     -0.943  0.2744E-06  0.2731E-06  0.1000E+02  0.1000E+02
     -0.879  0.3694E-05  0.3678E-05  0.1000E+02  0.1000E+02
     -0.815  0.4055E-04  0.4039E-04  0.1000E+02  0.1000E+02
     -0.750  0.3630E-03  0.3618E-03  0.1000E+02  0.1000E+02
     -0.686  0.2651E-02  0.2643E-02  0.1000E+02  0.1000E+02
     -0.622  0.1580E-01  0.1575E-01  0.1000E+02  0.1000E+02
     -0.557  0.7679E-01  0.7661E-01  0.1001E+02  0.1001E+02
     -0.493  0.3046E+00  0.3040E+00  0.1003E+02  0.1003E+02
     -0.429  0.9859E+00  0.9843E+00  0.1009E+02  0.1009E+02
     -0.364  0.2604E+01  0.2601E+01  0.1026E+02  0.1026E+02
     -0.300  0.5614E+01  0.5608E+01  0.1062E+02  0.1062E+02
     -0.236  0.9877E+01  0.9871E+01  0.1125E+02  0.1125E+02
     -0.171  0.1418E+02  0.1418E+02  0.1217E+02  0.1217E+02
     -0.107  0.1663E+02  0.1663E+02  0.1324E+02  0.1324E+02
     -0.042  0.1591E+02  0.1591E+02  0.1426E+02  0.1426E+02
      0.022  0.1242E+02  0.1243E+02  0.1506E+02  0.1506E+02
      0.086  0.7932E+01  0.7938E+01  0.1557E+02  0.1557E+02
      0.151  0.4190E+01  0.4194E+01  0.1584E+02  0.1584E+02
      0.215  0.2021E+01  0.2023E+01  0.1597E+02  0.1597E+02
      0.279  0.1450E+01  0.1450E+01  0.1606E+02  0.1606E+02
      0.344  0.2299E+01  0.2299E+01  0.1621E+02  0.1621E+02
      0.408  0.4418E+01  0.4417E+01  0.1650E+02  0.1650E+02
      0.472  0.7376E+01  0.7375E+01  0.1697E+02  0.1697E+02
      0.537  0.1019E+02  0.1019E+02  0.1763E+02  0.1763E+02
      0.601  0.1174E+02  0.1175E+02  0.1838E+02  0.1838E+02
      0.666  0.1171E+02  0.1171E+02  0.1914E+02  0.1914E+02
      0.730  0.1095E+02  0.1096E+02  0.1984E+02  0.1984E+02
      0.794  0.1073E+02  0.1073E+02  0.2053E+02  0.2053E+02
      0.859  0.1136E+02  0.1137E+02  0.2126E+02  0.2126E+02
      0.923  0.1190E+02  0.1190E+02  0.2203E+02  0.2203E+02
      0.987  0.1112E+02  0.1112E+02  0.2274E+02  0.2274E+02
      1.052  0.8771E+01  0.8769E+01  0.2331E+02  0.2331E+02
      1.116  0.5713E+01  0.5712E+01  0.2368E+02  0.2368E+02
      1.180  0.3049E+01  0.3047E+01  0.2387E+02  0.2387E+02
      1.245  0.1329E+01  0.1328E+01  0.2396E+02  0.2396E+02
      1.309  0.4726E+00  0.4723E+00  0.2399E+02  0.2399E+02
      1.373  0.1371E+00  0.1370E+00  0.2400E+02  0.2400E+02
      1.438  0.3246E-01  0.3243E-01  0.2400E+02  0.2400E+02
      1.502  0.6264E-02  0.6258E-02  0.2400E+02  0.2400E+02
      1.567  0.9858E-03  0.9847E-03  0.2400E+02  0.2400E+02
      1.631  0.1265E-03  0.1263E-03  0.2400E+02  0.2400E+02
      1.695  0.1323E-04  0.1321E-04  0.2400E+02  0.2400E+02
      1.760  0.1128E-05  0.1127E-05  0.2400E+02  0.2400E+02
      1.824  0.7843E-07  0.7830E-07  0.2400E+02  0.2400E+02
      1.888  0.4442E-08  0.4435E-08  0.2400E+02  0.2400E+02
      1.953  0.2051E-09  0.2047E-09  0.2400E+02  0.2400E+02
      2.017  0.7707E-11  0.7694E-11  0.2400E+02  0.2400E+02
      2.081  0.2346E-12  0.2346E-12  0.2400E+02  0.2400E+02
      2.146  0.6900E-14  0.6900E-14  0.2400E+02  0.2400E+02
      2.210  0.0000E+00  0.0000E+00  0.2400E+02  0.2400E+02
      2.275  0.0000E+00  0.0000E+00  0.2400E+02  0.2400E+02
      2.339  0.0000E+00  0.0000E+00  0.2400E+02  0.2400E+02
      2.403  0.0000E+00  0.0000E+00  0.2400E+02  0.2400E+02
      2.468  0.0000E+00  0.0000E+00  0.2400E+02  0.2400E+02
      2.532  0.0000E+00  0.0000E+00  0.2400E+02  0.2400E+02
      2.596  0.0000E+00  0.0000E+00  0.2400E+02  0.2400E+02
      2.661  0.0000E+00  0.0000E+00  0.2400E+02  0.2400E+02
      2.725  0.0000E+00  0.0000E+00  0.2400E+02  0.2400E+02
      2.789  0.0000E+00  0.0000E+00  0.2400E+02  0.2400E+02
      2.854  0.0000E+00  0.0000E+00  0.2400E+02  0.2400E+02
      2.918  0.0000E+00  0.0000E+00  0.2400E+02  0.2400E+02
