    8    8    1    2
  0.2025000E+03  0.1500000E-08  0.1500000E-08  0.7200000E-09  0.5000000E-15
  1.000000000000000E-004
  CAR 
 unknown system                          
      8      1     12
 
  0.0000000E+00  0.0000000E+00  0.0000000E+00  0.1000000E+01
    1      -14.389823    -14.389822   1.000000   1.000000
    2      -11.505221    -11.505221   1.000000   1.000000
    3      -11.505221    -11.505221   1.000000   1.000000
    4       -2.870960     -2.870960   0.500000   0.500000
    5       -2.870960     -2.870960   0.500000   0.500000
    6       -0.130662     -0.130460   0.000000   0.000000
    7       -0.115925     -0.115888   0.000000   0.000000
    8       -0.115925     -0.115888   0.000000   0.000000
    9        0.570647      0.570474   0.000000   0.000000
   10        0.572281      0.572500   0.000000   0.000000
   11        0.918102      0.918065   0.000000   0.000000
   12        0.918102      0.918065   0.000000   0.000000
