       N       E                     dE             d eps       ncg     rms          rms(c)
DAV:   1    -0.335256211706E+01   -0.33526E+01   -0.12662E+03    72   0.169E+02
DAV:   2    -0.206397709430E+02   -0.17287E+02   -0.16735E+02    60   0.603E+01
DAV:   3    -0.213879407401E+02   -0.74817E+00   -0.73518E+00    96   0.110E+01
DAV:   4    -0.215980261463E+02   -0.21009E+00   -0.46594E-01    52   0.610E-01
DAV:   5    -0.216011521436E+02   -0.31260E-02   -0.31119E-02    56   0.342E-01    0.660E+00
DAV:   6    -0.205419582316E+02    0.10592E+01   -0.30833E-01    48   0.235E+00    0.388E+00
DAV:   7    -0.197774195505E+02    0.76454E+00   -0.93186E-01    56   0.404E+00    0.472E-01
DAV:   8    -0.197661357914E+02    0.11284E-01   -0.94615E-03    48   0.568E-01    0.199E-01
DAV:   9    -0.197591481044E+02    0.69877E-02   -0.44058E-03    56   0.290E-01    0.743E-02
DAV:  10    -0.197661590982E+02   -0.70110E-02   -0.22110E-03    48   0.206E-01    0.321E-02
DAV:  11    -0.197693637330E+02   -0.32046E-02   -0.22660E-04    48   0.715E-02    0.249E-02
DAV:  12    -0.197755524843E+02   -0.61888E-02   -0.11405E-03    56   0.145E-01    0.146E-02
DAV:  13    -0.197760571947E+02   -0.50471E-03   -0.39203E-05    48   0.269E-02    0.951E-03
DAV:  14    -0.197766098534E+02   -0.55266E-03   -0.10930E-05    48   0.171E-02    0.467E-03
DAV:  15    -0.197772019023E+02   -0.59205E-03   -0.18191E-05    48   0.201E-02    0.198E-03
DAV:  16    -0.197772474963E+02   -0.45594E-04   -0.46337E-07    52   0.405E-03    0.137E-03
DAV:  17    -0.197773303208E+02   -0.82825E-04   -0.16086E-06    48   0.610E-03    0.388E-04
DAV:  18    -0.197773350247E+02   -0.47039E-05   -0.10182E-07    48   0.178E-03    0.247E-04
DAV:  19    -0.197773423353E+02   -0.73107E-05   -0.67349E-08    48   0.151E-03    0.144E-04
DAV:  20    -0.197773452759E+02   -0.29406E-05   -0.32919E-08    48   0.110E-03    0.773E-05
DAV:  21    -0.197773469235E+02   -0.16476E-05   -0.11143E-08    48   0.615E-04    0.614E-05
DAV:  22    -0.197773481664E+02   -0.12429E-05   -0.80190E-09    48   0.592E-04    0.274E-05
DAV:  23    -0.197773483966E+02   -0.23021E-06   -0.20660E-09    56   0.364E-04
   1 F= -.19777348E+02 E0= -.19664510E+02  d E =-.225676E+00  mag=     0.0000
