 vasp.5.4.4.18Apr17-6-g9f103f2a35 (build Aug 24 2024 05:40:03) complex          
  
 executed on           IFC22_IMPI date 2024.11.22  21:39:00
 running on    4 total cores
 distrk:  each k-point on    4 cores,    1 groups
 distr:  one band on NCORES_PER_BAND=   1 cores,    4 groups


--------------------------------------------------------------------------------------------------------


 INCAR:
 POTCAR:    PAW_PBE H 15Jun2001                   
 POTCAR:    PAW_PBE H 15Jun2001                   
   VRHFIN =H: ultrasoft test                                                    
   LEXCH  = PE                                                                  
   EATOM  =    12.4884 eV,    0.9179 Ry                                         
                                                                                
   TITEL  = PAW_PBE H 15Jun2001                                                 
   LULTRA =        F    use ultrasoft PP ?                                      
   IUNSCR =        0    unscreen: 0-lin 1-nonlin 2-no                           
   RPACOR =    0.000    partial core radius                                     
   POMASS =    1.000; ZVAL   =    1.000    mass and valenz                      
   RCORE  =    1.100    outmost cutoff radius                                   
   RWIGS  =    0.700; RWIGS  =    0.370    wigner-seitz radius (au A)           
   ENMAX  =  250.000; ENMIN  =  200.000 eV                                      
   RCLOC  =    0.701    cutoff for local pot                                    
   LCOR   =        T    correct aug charges                                     
   LPAW   =        T    paw PP                                                  
   EAUG   =  400.000                                                            
   RMAX   =    1.123    core radius for proj-oper                               
   RAUG   =    1.200    factor for augmentation sphere                          
   RDEP   =    1.112    radius for radial grids                                 
   RDEPT  =    0.926    core radius for aug-charge                              
                                                                                
   Atomic configuration                                                         
    2 entries                                                                   
     n  l   j            E        occ.                                          
     1  0  0.50        -6.4927   1.0000                                         
     2  1  0.50        -3.4015   0.0000                                         
   Description                                                                  
     l       E           TYP  RCUT    TYP  RCUT                                 
     0     -6.4927494     23  1.100                                             
     0      6.8029130     23  1.100                                             
     1     -4.0817478     23  1.100                                             
  local pseudopotential read in
  atomic valenz-charges read in
  non local Contribution for L=           0  read in
    real space projection operators read in
  non local Contribution for L=           0  read in
    real space projection operators read in
  non local Contribution for L=           1  read in
    real space projection operators read in
    PAW grid and wavefunctions read in
 
   number of l-projection  operators is LMAX  =           3
   number of lm-projection operators is LMMAX =           5
 
  PAW_PBE H 15Jun2001                   :
 energy of atom  1       EATOM=  -12.4884
 kinetic energy error for atom=    0.0426 (will be added to EATOM!!)
 
 
 POSCAR: H8                                      
  positions in direct lattice
  No initial velocities read in
 exchange correlation table for  LEXCH =        8
   RHO(1)=    0.500       N(1)  =     2000
   RHO(2)=  100.500       N(2)  =     4000
 


--------------------------------------------------------------------------------------------------------


 ion  position               nearest neighbor table
   1  0.000  0.000  0.000-
   2  0.000  0.000  0.125-
   3  0.000  0.000  0.250-
   4  0.000  0.000  0.375-
   5  0.000  0.000  0.500-
   6  0.000  0.000  0.625-
   7  0.000  0.000  0.750-
   8  0.000  0.000  0.875-
 
  LATTYP: Found a simple tetragonal cell.
 ALAT       =    15.0000000000
 C/A-ratio  =     0.4800000000
  
  Lattice vectors:
  
 A1 = (  15.0000000000,   0.0000000000,   0.0000000000)
 A2 = (   0.0000000000,  15.0000000000,   0.0000000000)
 A3 = (   0.0000000000,   0.0000000000,   7.2000000000)


Analysis of symmetry for initial positions (statically):
=====================================================================
 Subroutine PRICEL returns following result:
 
  LATTYP: Found a simple tetragonal cell.
 ALAT       =    15.0000000000
 C/A-ratio  =     0.0600000000
  
  Lattice vectors:
  
 A1 = (  15.0000000000,   0.0000000000,   0.0000000000)
 A2 = (   0.0000000000,  15.0000000000,   0.0000000000)
 A3 = (   0.0000000000,   0.0000000000,   0.9000000000)
 
   8 primitive cells build up your supercell.
 

 Routine SETGRP: Setting up the symmetry group for a 
 simple tetragonal supercell.


 Subroutine GETGRP returns: Found 16 space group operations
 (whereof 16 operations were pure point group operations)
 out of a pool of 16 trial point group operations.


The static configuration has the point symmetry D_4h.


Analysis of symmetry for dynamics (positions and initial velocities):
=====================================================================
 Subroutine PRICEL returns following result:
 
  LATTYP: Found a simple tetragonal cell.
 ALAT       =    15.0000000000
 C/A-ratio  =     0.0600000000
  
  Lattice vectors:
  
 A1 = (  15.0000000000,   0.0000000000,   0.0000000000)
 A2 = (   0.0000000000,  15.0000000000,   0.0000000000)
 A3 = (   0.0000000000,   0.0000000000,   0.9000000000)
 
   8 primitive cells build up your supercell.
 

 Routine SETGRP: Setting up the symmetry group for a 
 simple tetragonal supercell.


 Subroutine GETGRP returns: Found 16 space group operations
 (whereof 16 operations were pure point group operations)
 out of a pool of 16 trial point group operations.


The dynamic configuration has the point symmetry D_4h.


Analysis of structural, dynamic, and magnetic symmetry:
=====================================================================
 Subroutine PRICEL returns following result:
 
  LATTYP: Found a simple tetragonal cell.
 ALAT       =    15.0000000000
 C/A-ratio  =     0.0600000000
  
  Lattice vectors:
  
 A1 = (  15.0000000000,   0.0000000000,   0.0000000000)
 A2 = (   0.0000000000,  15.0000000000,   0.0000000000)
 A3 = (   0.0000000000,   0.0000000000,   0.9000000000)
 
   8 primitive cells build up your supercell.
 

 Routine SETGRP: Setting up the symmetry group for a 
 simple tetragonal supercell.


 Subroutine GETGRP returns: Found 16 space group operations
 (whereof 16 operations were pure point group operations)
 out of a pool of 16 trial point group operations.


The magnetic configuration has the point symmetry D_4h.


 Subroutine INISYM returns: Found 16 space group operations
 (whereof 16 operations are pure point group operations),
 and found     8 'primitive' translations

 
 
 KPOINTS: Automatic kpoint scheme                 

Automatic generation of k-mesh.
Space group operators:
 irot       det(A)        alpha          n_x          n_y          n_z        tau_x        tau_y        tau_z
    1     1.000000     0.000000     1.000000     0.000000     0.000000     0.000000     0.000000     0.000000
    2    -1.000000     0.000000     1.000000     0.000000     0.000000     0.000000     0.000000     0.000000
    3     1.000000    90.000000     0.000000     0.000000    -1.000000     0.000000     0.000000     0.000000
    4    -1.000000    90.000000     0.000000     0.000000    -1.000000     0.000000     0.000000     0.000000
    5     1.000000   180.000000    -0.000000    -0.000000     1.000000     0.000000     0.000000     0.000000
    6    -1.000000   180.000000    -0.000000    -0.000000     1.000000     0.000000     0.000000     0.000000
    7     1.000000    90.000000    -0.000000    -0.000000     1.000000     0.000000     0.000000     0.000000
    8    -1.000000    90.000000    -0.000000    -0.000000     1.000000     0.000000     0.000000     0.000000
    9     1.000000   180.000000     0.000000     1.000000     0.000000     0.000000     0.000000     0.000000
   10    -1.000000   180.000000     0.000000     1.000000     0.000000     0.000000     0.000000     0.000000
   11     1.000000   180.000000     0.707107     0.707107     0.000000     0.000000     0.000000     0.000000
   12    -1.000000   180.000000     0.707107     0.707107     0.000000     0.000000     0.000000     0.000000
   13     1.000000   180.000000     1.000000    -0.000000     0.000000     0.000000     0.000000     0.000000
   14    -1.000000   180.000000     1.000000    -0.000000     0.000000     0.000000     0.000000     0.000000
   15     1.000000   180.000000     0.707107    -0.707107     0.000000     0.000000     0.000000     0.000000
   16    -1.000000   180.000000     0.707107    -0.707107     0.000000     0.000000     0.000000     0.000000
 
 Subroutine IBZKPT returns following result:
 ===========================================
 
 Found      1 irreducible k-points:
 
 Following reciprocal coordinates:
            Coordinates               Weight
  0.000000  0.000000  0.000000      1.000000
 
 Following cartesian coordinates:
            Coordinates               Weight
  0.000000  0.000000  0.000000      1.000000
 


--------------------------------------------------------------------------------------------------------




 Dimension of arrays:
   k-points           NKPTS =      1   k-points in BZ     NKDIM =      1   number of bands    NBANDS=     12
   number of dos      NEDOS =    301   number of ions     NIONS =      8
   non local maximal  LDIM  =      3   non local SUM 2l+1 LMDIM =      5
   total plane-waves  NPLWV = 131072
   max r-space proj   IRMAX =      1   max aug-charges    IRDMAX=    593
   dimension x,y,z NGX =    64 NGY =   64 NGZ =   32
   dimension x,y,z NGXF=   128 NGYF=  128 NGZF=   64
   support grid    NGXF=   128 NGYF=  128 NGZF=   64
   ions per type =               8
   NGX,Y,Z   is equivalent  to a cutoff of   7.09,  7.09,  7.39 a.u.
   NGXF,Y,Z  is equivalent  to a cutoff of  14.19, 14.19, 14.78 a.u.

 SYSTEM =  unknown system                          
 POSCAR =  H8                                      

 Startparameter for this run:
   NWRITE =      2    write-flag & timer
   PREC   = normal    normal or accurate (medium, high low for compatibility)
   ISTART =      0    job   : 0-new  1-cont  2-samecut
   ICHARG =      2    charge: 1-file 2-atom 10-const
   ISPIN  =      2    spin polarized calculation?
   LNONCOLLINEAR =      F non collinear calculations
   LSORBIT =      F    spin-orbit coupling
   INIWAV =      1    electr: 0-lowe 1-rand  2-diag
   LASPH  =      F    aspherical Exc in radial PAW
   METAGGA=      F    non-selfconsistent MetaGGA calc.

 Electronic Relaxation 1
   ENCUT  =  300.0 eV  22.05 Ry    4.70 a.u.  21.18 21.18 10.17*2*pi/ulx,y,z
   ENINI  =  300.0     initial cutoff
   ENAUG  =  400.0 eV  augmentation charge cutoff
   NELM   =    100;   NELMIN=  2; NELMDL= -5     # of ELM steps 
   EDIFF  = 0.1E-05   stopping-criterion for ELM
   LREAL  =      F    real-space projection
   NLSPLINE    = F    spline interpolate recip. space projectors
   LCOMPAT=      F    compatible to vasp.4.4
   GGA_COMPAT  = T    GGA compatible to vasp.4.4-vasp.4.6
   LMAXPAW     = -100 max onsite density
   LMAXMIX     =    2 max onsite mixed and CHGCAR
   VOSKOWN=      0    Vosko Wilk Nusair interpolation
   ROPT   =    0.00000
 Ionic relaxation
   EDIFFG = 0.1E-04   stopping-criterion for IOM
   NSW    =      0    number of steps for IOM
   NBLOCK =      1;   KBLOCK =      1    inner block; outer block 
   IBRION =     -1    ionic relax: 0-MD 1-quasi-New 2-CG
   NFREE  =      0    steps in history (QN), initial steepest desc. (CG)
   ISIF   =      2    stress and relaxation
   IWAVPR =     10    prediction:  0-non 1-charg 2-wave 3-comb
   ISYM   =      2    0-nonsym 1-usesym 2-fastsym
   LCORR  =      T    Harris-Foulkes like correction to forces

   POTIM  = 0.5000    time-step for ionic-motion
   TEIN   =    0.0    initial temperature
   TEBEG  =    0.0;   TEEND  =   0.0 temperature during run
   SMASS  =  -3.00    Nose mass-parameter (am)
   estimated Nose-frequenzy (Omega)   =  0.10E-29 period in steps =****** mass=  -0.514E-26a.u.
   SCALEE = 1.0000    scale energy and forces
   NPACO  =    256;   APACO  = 16.0  distance and # of slots for P.C.
   PSTRESS=    0.0 pullay stress

  Mass of Ions in am
   POMASS =   1.00
  Ionic Valenz
   ZVAL   =   1.00
  Atomic Wigner-Seitz radii
   RWIGS  =  -1.00
  virtual crystal weights 
   VCA    =   1.00
   NELECT =       8.0000    total number of electrons
   NUPDOWN=       0.0000    fix difference up-down

 DOS related values:
   EMIN   =  10.00;   EMAX   =-10.00  energy-range for DOS
   EFERMI =   0.00
   ISMEAR =     0;   SIGMA  =   0.20  broadening in eV -4-tet -1-fermi 0-gaus

 Electronic relaxation 2 (details)
   IALGO  =     38    algorithm
   LDIAG  =      T    sub-space diagonalisation (order eigenvalues)
   LSUBROT=      F    optimize rotation matrix (better conditioning)
   TURBO    =      0    0=normal 1=particle mesh
   IRESTART =      0    0=no restart 2=restart with 2 vectors
   NREBOOT  =      0    no. of reboots
   NMIN     =      0    reboot dimension
   EREF     =   0.00    reference energy to select bands
   IMIX   =      4    mixing-type and parameters
     AMIX     =   0.40;   BMIX     =  1.00
     AMIX_MAG =   1.60;   BMIX_MAG =  1.00
     AMIN     =   0.10
     WC   =   100.;   INIMIX=   1;  MIXPRE=   1;  MAXMIX= -45

 Intra band minimization:
   WEIMIN = 0.0000     energy-eigenvalue tresh-hold
   EBREAK =  0.21E-07  absolut break condition
   DEPER  =   0.30     relativ break condition  

   TIME   =   0.40     timestep for ELM

  volume/ion in A,a.u.               =     202.50      1366.54
  Fermi-wavevector in a.u.,A,eV,Ry     =   0.278783  0.526824  1.057445  0.077720
  Thomas-Fermi vector in A             =   1.125867
 
 Write flags
   LWAVE        =      F    write WAVECAR
   LDOWNSAMPLE  =      F    k-point downsampling of WAVECAR
   LCHARG       =      F    write CHGCAR
   LVTOT        =      F    write LOCPOT, total local potential
   LVHAR        =      F    write LOCPOT, Hartree potential only
   LELF         =      F    write electronic localiz. function (ELF)
   LORBIT       =      0    0 simple, 1 ext, 2 COOP (PROOUT), +10 PAW based schemes


 Dipole corrections
   LMONO  =      F    monopole corrections only (constant potential shift)
   LDIPOL =      F    correct potential (dipole corrections)
   IDIPOL =      0    1-x, 2-y, 3-z, 4-all directions 
   EPSILON=  1.0000000 bulk dielectric constant

 Exchange correlation treatment:
   GGA     =    --    GGA type
   LEXCH   =     8    internal setting for exchange type
   VOSKOWN=      0    Vosko Wilk Nusair interpolation
   LHFCALC =     F    Hartree Fock is set to
   LHFONE  =     F    Hartree Fock one center treatment
   AEXX    =    0.0000 exact exchange contribution

 Linear response parameters
   LEPSILON=     F    determine dielectric tensor
   LRPA    =     F    only Hartree local field effects (RPA)
   LNABLA  =     F    use nabla operator in PAW spheres
   LVEL    =     F    velocity operator in full k-point grid
   LINTERFAST=   F  fast interpolation
   KINTER  =     0    interpolate to denser k-point grid
   CSHIFT  =0.1000    complex shift for real part using Kramers Kronig
   OMEGAMAX=  -1.0    maximum frequency
   DEG_THRESHOLD= 0.2000000E-02 threshold for treating states as degnerate
   RTIME   =   -0.100 relaxation time in fs
  (WPLASMAI=    0.000 imaginary part of plasma frequency in eV, 0.658/RTIME)
   DFIELD  = 0.0000000 0.0000000 0.0000000 field for delta impulse in time
 
 Orbital magnetization related:
   ORBITALMAG=     F  switch on orbital magnetization
   LCHIMAG   =     F  perturbation theory with respect to B field
   DQ        =  0.001000  dq finite difference perturbation B field
   LLRAUG    =     F  two centre corrections for induced B field



--------------------------------------------------------------------------------------------------------


 Static calculation
 charge density and potential will be updated during run
 spin polarized calculation
 Variant of blocked Davidson
 Davidson routine will perform the subspace rotation
 perform sub-space diagonalisation
    after iterative eigenvector-optimisation
 modified Broyden-mixing scheme, WC =      100.0
 initial mixing is a Kerker type mixing with AMIX =  0.4000 and BMIX =      1.0000
 Hartree-type preconditioning will be used
 using additional bands            8
 reciprocal scheme for non local part
 calculate Harris-corrections to forces 
   (improved forces if not selfconsistent)
 use gradient corrections 
 use of overlap-Matrix (Vanderbilt PP)
 Gauss-broadening in eV      SIGMA  =   0.20


--------------------------------------------------------------------------------------------------------


  energy-cutoff  :      300.00
  volume of cell :     1620.00
      direct lattice vectors                 reciprocal lattice vectors
    15.000000000  0.000000000  0.000000000     0.066666667 -0.000000000  0.000000000
     0.000000000 15.000000000  0.000000000     0.000000000  0.066666667  0.000000000
     0.000000000  0.000000000  7.200000000    -0.000000000 -0.000000000  0.138888889

  length of vectors
    15.000000000 15.000000000  7.200000000     0.066666667  0.066666667  0.138888889


 
 k-points in units of 2pi/SCALE and weight: Automatic kpoint scheme                 
   0.00000000  0.00000000  0.00000000       1.000
 
 k-points in reciprocal lattice and weights: Automatic kpoint scheme                 
   0.00000000  0.00000000  0.00000000       1.000
 
 position of ions in fractional coordinates (direct lattice) 
   0.00000000  0.00000000  0.00000000
   0.00000000  0.00000000  0.12500000
   0.00000000  0.00000000  0.25000000
   0.00000000  0.00000000  0.37500000
   0.00000000  0.00000000  0.50000000
   0.00000000  0.00000000  0.62500000
   0.00000000  0.00000000  0.75000000
   0.00000000  0.00000000  0.87500000
 
 position of ions in cartesian coordinates  (Angst):
   0.00000000  0.00000000  0.00000000
   0.00000000  0.00000000  0.90000000
   0.00000000  0.00000000  1.80000000
   0.00000000  0.00000000  2.70000000
   0.00000000  0.00000000  3.60000000
   0.00000000  0.00000000  4.50000000
   0.00000000  0.00000000  5.40000000
   0.00000000  0.00000000  6.30000000
 


--------------------------------------------------------------------------------------------------------


 k-point  1 :   0.0000 0.0000 0.0000  plane waves:   19169

 maximum and minimum number of plane-waves per node :     19169    19169

 maximum number of plane-waves:     19169
 maximum index in each direction: 
   IXMAX=   21   IYMAX=   21   IZMAX=   10
   IXMIN=  -21   IYMIN=  -21   IZMIN=  -10


 serial   3D FFT for wavefunctions
 parallel 3D FFT for charge:
    minimum data exchange during FFTs selected (reduces bandwidth)


 total amount of memory used by VASP MPI-rank0    74654. kBytes
=======================================================================

   base      :      30000. kBytes
   nonl-proj :       3220. kBytes
   fftplans  :       9622. kBytes
   grid      :      29949. kBytes
   one-center:         19. kBytes
   wavefun   :       1844. kBytes
 
     INWAV:  cpu time    0.0000: real time    0.0000
 Broyden mixing: mesh for mixing (old mesh)
   NGX = 43   NGY = 43   NGZ = 21
  (NGX  =128   NGY  =128   NGZ  = 64)
  gives a total of  38829 points

 initial charge density was supplied:
 charge density of overlapping atoms calculated
 number of electron       8.0000000 magnetization       0.0000000
 keeping initial charge density in first step


--------------------------------------------------------------------------------------------------------


 Maximum index for augmentation-charges           91 (set IRDMAX)


--------------------------------------------------------------------------------------------------------


 First call to EWALD:  gamma=   0.151
 Maximum number of real-space cells 2x 2x 4
 Maximum number of reciprocal cells 3x 3x 2

    FEWALD:  cpu time    0.0016: real time    0.0016


--------------------------------------- Iteration      1(   1)  ---------------------------------------


    POTLOK:  cpu time    0.3622: real time    0.3622
    SETDIJ:  cpu time    0.0097: real time    0.0097
     EDDAV:  cpu time    0.2490: real time    0.2490
       DOS:  cpu time    0.0003: real time    0.0003
    --------------------------------------------
      LOOP:  cpu time    0.6213: real time    0.6212

 eigenvalue-minimisations  :    72
 total energy-change (2. order) :-0.3352562E+01  (-0.1266239E+03)
 number of electron       8.0000000 magnetization       0.0000000
 augmentation part        8.0000000 magnetization       0.0000000

 Free energy of the ion-electron system (eV)
  ---------------------------------------------------
  alpha Z        PSCENC =         0.09624365
  Ewald energy   TEWEN  =       177.52649805
  -Hartree energ DENC   =      -207.34743169
  -exchange      EXHF   =         0.00000000
  -V(xc)+E(xc)   XCENC  =        19.34823566
  PAW double counting   =        17.07221949      -17.14324176
  entropy T*S    EENTRO =        -0.04472206
  eigenvalues    EBANDS =       -92.42656654
  atomic energy  EATOM  =        99.56620307
  Solvation  Ediel_sol  =         0.00000000
  ---------------------------------------------------
  free energy    TOTEN  =        -3.35256212 eV

  energy without entropy =       -3.30784006  energy(sigma->0) =       -3.33020109


--------------------------------------------------------------------------------------------------------




--------------------------------------- Iteration      1(   2)  ---------------------------------------


     EDDAV:  cpu time    0.2119: real time    0.2118
       DOS:  cpu time    0.0002: real time    0.0002
    --------------------------------------------
      LOOP:  cpu time    0.2121: real time    0.2120

 eigenvalue-minimisations  :    60
 total energy-change (2. order) :-0.1728721E+02  (-0.1673534E+02)
 number of electron       8.0000000 magnetization       0.0000000
 augmentation part        8.0000000 magnetization       0.0000000

 Free energy of the ion-electron system (eV)
  ---------------------------------------------------
  alpha Z        PSCENC =         0.09624365
  Ewald energy   TEWEN  =       177.52649805
  -Hartree energ DENC   =      -207.34743169
  -exchange      EXHF   =         0.00000000
  -V(xc)+E(xc)   XCENC  =        19.34823566
  PAW double counting   =        17.07221949      -17.14324176
  entropy T*S    EENTRO =        -0.00000000
  eigenvalues    EBANDS =      -109.75849742
  atomic energy  EATOM  =        99.56620307
  Solvation  Ediel_sol  =         0.00000000
  ---------------------------------------------------
  free energy    TOTEN  =       -20.63977094 eV

  energy without entropy =      -20.63977094  energy(sigma->0) =      -20.63977094


--------------------------------------------------------------------------------------------------------




--------------------------------------- Iteration      1(   3)  ---------------------------------------


     EDDAV:  cpu time    0.3086: real time    0.3085
       DOS:  cpu time    0.0003: real time    0.0003
    --------------------------------------------
      LOOP:  cpu time    0.3089: real time    0.3088

 eigenvalue-minimisations  :    96
 total energy-change (2. order) :-0.7481698E+00  (-0.7351845E+00)
 number of electron       8.0000000 magnetization       0.0000000
 augmentation part        8.0000000 magnetization       0.0000000

 Free energy of the ion-electron system (eV)
  ---------------------------------------------------
  alpha Z        PSCENC =         0.09624365
  Ewald energy   TEWEN  =       177.52649805
  -Hartree energ DENC   =      -207.34743169
  -exchange      EXHF   =         0.00000000
  -V(xc)+E(xc)   XCENC  =        19.34823566
  PAW double counting   =        17.07221949      -17.14324176
  entropy T*S    EENTRO =        -0.05932371
  eigenvalues    EBANDS =      -110.44734351
  atomic energy  EATOM  =        99.56620307
  Solvation  Ediel_sol  =         0.00000000
  ---------------------------------------------------
  free energy    TOTEN  =       -21.38794074 eV

  energy without entropy =      -21.32861703  energy(sigma->0) =      -21.35827889


--------------------------------------------------------------------------------------------------------




--------------------------------------- Iteration      1(   4)  ---------------------------------------


     EDDAV:  cpu time    0.1895: real time    0.1895
       DOS:  cpu time    0.0003: real time    0.0003
    --------------------------------------------
      LOOP:  cpu time    0.1898: real time    0.1897

 eigenvalue-minimisations  :    52
 total energy-change (2. order) :-0.2100854E+00  (-0.4659427E-01)
 number of electron       8.0000000 magnetization       0.0000000
 augmentation part        8.0000000 magnetization       0.0000000

 Free energy of the ion-electron system (eV)
  ---------------------------------------------------
  alpha Z        PSCENC =         0.09624365
  Ewald energy   TEWEN  =       177.52649805
  -Hartree energ DENC   =      -207.34743169
  -exchange      EXHF   =         0.00000000
  -V(xc)+E(xc)   XCENC  =        19.34823566
  PAW double counting   =        17.07221949      -17.14324176
  entropy T*S    EENTRO =        -0.22566079
  eigenvalues    EBANDS =      -110.49109184
  atomic energy  EATOM  =        99.56620307
  Solvation  Ediel_sol  =         0.00000000
  ---------------------------------------------------
  free energy    TOTEN  =       -21.59802615 eV

  energy without entropy =      -21.37236536  energy(sigma->0) =      -21.48519575


--------------------------------------------------------------------------------------------------------




--------------------------------------- Iteration      1(   5)  ---------------------------------------


     EDDAV:  cpu time    0.2039: real time    0.2039
       DOS:  cpu time    0.0003: real time    0.0003
    CHARGE:  cpu time    0.1043: real time    0.1043
    MIXING:  cpu time    0.0072: real time    0.0072
    --------------------------------------------
      LOOP:  cpu time    0.3158: real time    0.3157

 eigenvalue-minimisations  :    56
 total energy-change (2. order) :-0.3125997E-02  (-0.3111886E-02)
 number of electron       8.0000057 magnetization      -0.0000000
 augmentation part        0.1652292 magnetization      -0.0000054

 Broyden mixing:
  rms(total) = 0.66020E+00    rms(broyden)= 0.65996E+00
  rms(prec ) = 0.76200E+00
  weight for this iteration     100.00

 Free energy of the ion-electron system (eV)
  ---------------------------------------------------
  alpha Z        PSCENC =         0.09624365
  Ewald energy   TEWEN  =       177.52649805
  -Hartree energ DENC   =      -207.34743169
  -exchange      EXHF   =         0.00000000
  -V(xc)+E(xc)   XCENC  =        19.34823566
  PAW double counting   =        17.07221949      -17.14324176
  entropy T*S    EENTRO =        -0.22567582
  eigenvalues    EBANDS =      -110.49420281
  atomic energy  EATOM  =        99.56620307
  Solvation  Ediel_sol  =         0.00000000
  ---------------------------------------------------
  free energy    TOTEN  =       -21.60115214 eV

  energy without entropy =      -21.37547633  energy(sigma->0) =      -21.48831423


--------------------------------------------------------------------------------------------------------




--------------------------------------- Iteration      1(   6)  ---------------------------------------


    POTLOK:  cpu time    0.3791: real time    0.3790
    SETDIJ:  cpu time    0.0105: real time    0.0105
     EDDAV:  cpu time    0.1794: real time    0.1794
       DOS:  cpu time    0.0003: real time    0.0003
    CHARGE:  cpu time    0.1011: real time    0.1011
    MIXING:  cpu time    0.0078: real time    0.0078
    --------------------------------------------
      LOOP:  cpu time    0.6782: real time    0.6780

 eigenvalue-minimisations  :    48
 total energy-change (2. order) : 0.1059194E+01  (-0.3083309E-01)
 number of electron       8.0000055 magnetization      -0.0000000
 augmentation part        0.1612546 magnetization      -0.0000015

 Broyden mixing:
  rms(total) = 0.38759E+00    rms(broyden)= 0.38758E+00
  rms(prec ) = 0.45421E+00
  weight for this iteration     100.00

 eigenvalues of (default mixing * dielectric matrix)
  average eigenvalue GAMMA=   2.3850
  2.3850

 Free energy of the ion-electron system (eV)
  ---------------------------------------------------
  alpha Z        PSCENC =         0.09624365
  Ewald energy   TEWEN  =       177.52649805
  -Hartree energ DENC   =      -216.70488516
  -exchange      EXHF   =         0.00000000
  -V(xc)+E(xc)   XCENC  =        20.34556075
  PAW double counting   =        44.82181945      -44.93599246
  entropy T*S    EENTRO =        -0.22567583
  eigenvalues    EBANDS =      -101.03172976
  atomic energy  EATOM  =        99.56620307
  Solvation  Ediel_sol  =         0.00000000
  ---------------------------------------------------
  free energy    TOTEN  =       -20.54195823 eV

  energy without entropy =      -20.31628240  energy(sigma->0) =      -20.42912031


--------------------------------------------------------------------------------------------------------




--------------------------------------- Iteration      1(   7)  ---------------------------------------


    POTLOK:  cpu time    0.3846: real time    0.3844
    SETDIJ:  cpu time    0.0107: real time    0.0107
     EDDAV:  cpu time    0.2023: real time    0.2023
       DOS:  cpu time    0.0003: real time    0.0003
    CHARGE:  cpu time    0.1021: real time    0.1021
    MIXING:  cpu time    0.0084: real time    0.0084
    --------------------------------------------
      LOOP:  cpu time    0.7084: real time    0.7081

 eigenvalue-minimisations  :    56
 total energy-change (2. order) : 0.7645387E+00  (-0.9318589E-01)
 number of electron       8.0000053 magnetization       0.0000000
 augmentation part        0.1542844 magnetization       0.0000027

 Broyden mixing:
  rms(total) = 0.47187E-01    rms(broyden)= 0.47001E-01
  rms(prec ) = 0.66033E-01
  weight for this iteration     100.00

 eigenvalues of (default mixing * dielectric matrix)
  average eigenvalue GAMMA=   2.7716
  2.7716  2.7716

 Free energy of the ion-electron system (eV)
  ---------------------------------------------------
  alpha Z        PSCENC =         0.09624365
  Ewald energy   TEWEN  =       177.52649805
  -Hartree energ DENC   =      -233.12117766
  -exchange      EXHF   =         0.00000000
  -V(xc)+E(xc)   XCENC  =        22.16151632
  PAW double counting   =       110.01775046     -110.20953139
  entropy T*S    EENTRO =        -0.22567583
  eigenvalues    EBANDS =       -85.58924624
  atomic energy  EATOM  =        99.56620307
  Solvation  Ediel_sol  =         0.00000000
  ---------------------------------------------------
  free energy    TOTEN  =       -19.77741955 eV

  energy without entropy =      -19.55174372  energy(sigma->0) =      -19.66458163


--------------------------------------------------------------------------------------------------------




--------------------------------------- Iteration      1(   8)  ---------------------------------------


    POTLOK:  cpu time    0.3763: real time    0.3761
    SETDIJ:  cpu time    0.0104: real time    0.0104
     EDDAV:  cpu time    0.1772: real time    0.1771
       DOS:  cpu time    0.0003: real time    0.0003
    CHARGE:  cpu time    0.0994: real time    0.0994
    MIXING:  cpu time    0.0086: real time    0.0086
    --------------------------------------------
      LOOP:  cpu time    0.6723: real time    0.6719

 eigenvalue-minimisations  :    48
 total energy-change (2. order) : 0.1128376E-01  (-0.9461538E-03)
 number of electron       8.0000053 magnetization      -0.0000000
 augmentation part        0.1536075 magnetization      -0.0000091

 Broyden mixing:
  rms(total) = 0.19854E-01    rms(broyden)= 0.19816E-01
  rms(prec ) = 0.30060E-01
  weight for this iteration     100.00

 eigenvalues of (default mixing * dielectric matrix)
  average eigenvalue GAMMA=   2.1684
  1.0128  2.4992  2.9933

 Free energy of the ion-electron system (eV)
  ---------------------------------------------------
  alpha Z        PSCENC =         0.09624365
  Ewald energy   TEWEN  =       177.52649805
  -Hartree energ DENC   =      -235.41308520
  -exchange      EXHF   =         0.00000000
  -V(xc)+E(xc)   XCENC  =        22.26538727
  PAW double counting   =       105.61320331     -105.78703976
  entropy T*S    EENTRO =        -0.22567583
  eigenvalues    EBANDS =       -83.40787036
  atomic energy  EATOM  =        99.56620307
  Solvation  Ediel_sol  =         0.00000000
  ---------------------------------------------------
  free energy    TOTEN  =       -19.76613579 eV

  energy without entropy =      -19.54045996  energy(sigma->0) =      -19.65329787


--------------------------------------------------------------------------------------------------------




--------------------------------------- Iteration      1(   9)  ---------------------------------------


    POTLOK:  cpu time    0.3860: real time    0.3859
    SETDIJ:  cpu time    0.0107: real time    0.0107
     EDDAV:  cpu time    0.1999: real time    0.1998
       DOS:  cpu time    0.0003: real time    0.0003
    CHARGE:  cpu time    0.1002: real time    0.1002
    MIXING:  cpu time    0.0096: real time    0.0096
    --------------------------------------------
      LOOP:  cpu time    0.7067: real time    0.7064

 eigenvalue-minimisations  :    56
 total energy-change (2. order) : 0.6987687E-02  (-0.4405764E-03)
 number of electron       8.0000053 magnetization       0.0000000
 augmentation part        0.1531833 magnetization       0.0000023

 Broyden mixing:
  rms(total) = 0.74267E-02    rms(broyden)= 0.74098E-02
  rms(prec ) = 0.16815E-01
  weight for this iteration     100.00

 eigenvalues of (default mixing * dielectric matrix)
  average eigenvalue GAMMA=   2.2848
  0.9566  3.2451  2.4687  2.4687

 Free energy of the ion-electron system (eV)
  ---------------------------------------------------
  alpha Z        PSCENC =         0.09624365
  Ewald energy   TEWEN  =       177.52649805
  -Hartree energ DENC   =      -236.83928743
  -exchange      EXHF   =         0.00000000
  -V(xc)+E(xc)   XCENC  =        22.38613408
  PAW double counting   =       109.61769022     -109.79547944
  entropy T*S    EENTRO =        -0.22567583
  eigenvalues    EBANDS =       -82.09147448
  atomic energy  EATOM  =        99.56620307
  Solvation  Ediel_sol  =         0.00000000
  ---------------------------------------------------
  free energy    TOTEN  =       -19.75914810 eV

  energy without entropy =      -19.53347227  energy(sigma->0) =      -19.64631019


--------------------------------------------------------------------------------------------------------




--------------------------------------- Iteration      1(  10)  ---------------------------------------


    POTLOK:  cpu time    0.3745: real time    0.3743
    SETDIJ:  cpu time    0.0105: real time    0.0105
     EDDAV:  cpu time    0.1773: real time    0.1921
       DOS:  cpu time    0.0003: real time    0.0003
    CHARGE:  cpu time    0.1006: real time    0.1006
    MIXING:  cpu time    0.0099: real time    0.0098
    --------------------------------------------
      LOOP:  cpu time    0.6731: real time    0.6876

 eigenvalue-minimisations  :    48
 total energy-change (2. order) :-0.7010994E-02  (-0.2210983E-03)
 number of electron       8.0000053 magnetization      -0.0000000
 augmentation part        0.1530348 magnetization      -0.0000148

 Broyden mixing:
  rms(total) = 0.32053E-02    rms(broyden)= 0.32003E-02
  rms(prec ) = 0.67605E-02
  weight for this iteration     100.00

 eigenvalues of (default mixing * dielectric matrix)
  average eigenvalue GAMMA=   2.3303
  4.5829  2.8757  2.4764  0.9651  0.7515

 Free energy of the ion-electron system (eV)
  ---------------------------------------------------
  alpha Z        PSCENC =         0.09624365
  Ewald energy   TEWEN  =       177.52649805
  -Hartree energ DENC   =      -238.12312330
  -exchange      EXHF   =         0.00000000
  -V(xc)+E(xc)   XCENC  =        22.41834538
  PAW double counting   =       109.69100881     -109.87099294
  entropy T*S    EENTRO =        -0.22567583
  eigenvalues    EBANDS =       -80.84466598
  atomic energy  EATOM  =        99.56620307
  Solvation  Ediel_sol  =         0.00000000
  ---------------------------------------------------
  free energy    TOTEN  =       -19.76615910 eV

  energy without entropy =      -19.54048326  energy(sigma->0) =      -19.65332118


--------------------------------------------------------------------------------------------------------




--------------------------------------- Iteration      1(  11)  ---------------------------------------


    POTLOK:  cpu time    0.3720: real time    0.3719
    SETDIJ:  cpu time    0.0106: real time    0.0106
     EDDAV:  cpu time    0.1789: real time    0.1788
       DOS:  cpu time    0.0003: real time    0.0003
    CHARGE:  cpu time    0.1011: real time    0.1011
    MIXING:  cpu time    0.0104: real time    0.0104
    --------------------------------------------
      LOOP:  cpu time    0.6733: real time    0.6731

 eigenvalue-minimisations  :    48
 total energy-change (2. order) :-0.3204635E-02  (-0.2266031E-04)
 number of electron       8.0000053 magnetization      -0.0000000
 augmentation part        0.1530226 magnetization       0.0000049

 Broyden mixing:
  rms(total) = 0.24859E-02    rms(broyden)= 0.24855E-02
  rms(prec ) = 0.55412E-02
  weight for this iteration     100.00

 eigenvalues of (default mixing * dielectric matrix)
  average eigenvalue GAMMA=   2.1733
  4.6838  2.8820  2.4812  1.1333  1.1333  0.7260

 Free energy of the ion-electron system (eV)
  ---------------------------------------------------
  alpha Z        PSCENC =         0.09624365
  Ewald energy   TEWEN  =       177.52649805
  -Hartree energ DENC   =      -238.18097761
  -exchange      EXHF   =         0.00000000
  -V(xc)+E(xc)   XCENC  =        22.41430985
  PAW double counting   =       109.51164330     -109.69125929
  entropy T*S    EENTRO =        -0.22567583
  eigenvalues    EBANDS =       -80.78634893
  atomic energy  EATOM  =        99.56620307
  Solvation  Ediel_sol  =         0.00000000
  ---------------------------------------------------
  free energy    TOTEN  =       -19.76936373 eV

  energy without entropy =      -19.54368790  energy(sigma->0) =      -19.65652582


--------------------------------------------------------------------------------------------------------




--------------------------------------- Iteration      1(  12)  ---------------------------------------


    POTLOK:  cpu time    0.3735: real time    0.3733
    SETDIJ:  cpu time    0.0105: real time    0.0105
     EDDAV:  cpu time    0.1979: real time    0.1978
       DOS:  cpu time    0.0003: real time    0.0003
    CHARGE:  cpu time    0.1006: real time    0.1006
    MIXING:  cpu time    0.0111: real time    0.0111
    --------------------------------------------
      LOOP:  cpu time    0.6938: real time    0.6935

 eigenvalue-minimisations  :    56
 total energy-change (2. order) :-0.6188751E-02  (-0.1140471E-03)
 number of electron       8.0000053 magnetization      -0.0000000
 augmentation part        0.1530371 magnetization       0.0000014

 Broyden mixing:
  rms(total) = 0.14572E-02    rms(broyden)= 0.14572E-02
  rms(prec ) = 0.24162E-02
  weight for this iteration     100.00

 eigenvalues of (default mixing * dielectric matrix)
  average eigenvalue GAMMA=   2.5634
  6.1926  4.0805  2.8033  2.4577  1.0105  0.7602  0.6387

 Free energy of the ion-electron system (eV)
  ---------------------------------------------------
  alpha Z        PSCENC =         0.09624365
  Ewald energy   TEWEN  =       177.52649805
  -Hartree energ DENC   =      -238.26522197
  -exchange      EXHF   =         0.00000000
  -V(xc)+E(xc)   XCENC  =        22.40049051
  PAW double counting   =       109.11319826     -109.29145480
  entropy T*S    EENTRO =        -0.22567583
  eigenvalues    EBANDS =       -80.69583343
  atomic energy  EATOM  =        99.56620307
  Solvation  Ediel_sol  =         0.00000000
  ---------------------------------------------------
  free energy    TOTEN  =       -19.77555248 eV

  energy without entropy =      -19.54987665  energy(sigma->0) =      -19.66271457


--------------------------------------------------------------------------------------------------------




--------------------------------------- Iteration      1(  13)  ---------------------------------------


    POTLOK:  cpu time    0.3675: real time    0.3673
    SETDIJ:  cpu time    0.0105: real time    0.0105
     EDDAV:  cpu time    0.1758: real time    0.1757
       DOS:  cpu time    0.0003: real time    0.0003
    CHARGE:  cpu time    0.1007: real time    0.1007
    MIXING:  cpu time    0.0119: real time    0.0119
    --------------------------------------------
      LOOP:  cpu time    0.6667: real time    0.6664

 eigenvalue-minimisations  :    48
 total energy-change (2. order) :-0.5047105E-03  (-0.3920302E-05)
 number of electron       8.0000053 magnetization      -0.0000000
 augmentation part        0.1530298 magnetization      -0.0000009

 Broyden mixing:
  rms(total) = 0.95117E-03    rms(broyden)= 0.95117E-03
  rms(prec ) = 0.16917E-02
  weight for this iteration     100.00

 eigenvalues of (default mixing * dielectric matrix)
  average eigenvalue GAMMA=   2.3995
  6.4677  3.9282  2.6946  2.4859  1.0362  1.1892  0.7586  0.6357

 Free energy of the ion-electron system (eV)
  ---------------------------------------------------
  alpha Z        PSCENC =         0.09624365
  Ewald energy   TEWEN  =       177.52649805
  -Hartree energ DENC   =      -238.32638033
  -exchange      EXHF   =         0.00000000
  -V(xc)+E(xc)   XCENC  =        22.40006206
  PAW double counting   =       109.10747794     -109.28575101
  entropy T*S    EENTRO =        -0.22567583
  eigenvalues    EBANDS =       -80.63473481
  atomic energy  EATOM  =        99.56620307
  Solvation  Ediel_sol  =         0.00000000
  ---------------------------------------------------
  free energy    TOTEN  =       -19.77605719 eV

  energy without entropy =      -19.55038136  energy(sigma->0) =      -19.66321928


--------------------------------------------------------------------------------------------------------




--------------------------------------- Iteration      1(  14)  ---------------------------------------


    POTLOK:  cpu time    0.3680: real time    0.3678
    SETDIJ:  cpu time    0.0105: real time    0.0105
     EDDAV:  cpu time    0.1776: real time    0.1776
       DOS:  cpu time    0.0002: real time    0.0002
    CHARGE:  cpu time    0.1005: real time    0.1005
    MIXING:  cpu time    0.0127: real time    0.0126
    --------------------------------------------
      LOOP:  cpu time    0.6696: real time    0.6693

 eigenvalue-minimisations  :    48
 total energy-change (2. order) :-0.5526586E-03  (-0.1093039E-05)
 number of electron       8.0000053 magnetization       0.0000000
 augmentation part        0.1530213 magnetization       0.0000006

 Broyden mixing:
  rms(total) = 0.46712E-03    rms(broyden)= 0.46711E-03
  rms(prec ) = 0.10012E-02
  weight for this iteration     100.00

 eigenvalues of (default mixing * dielectric matrix)
  average eigenvalue GAMMA=   2.7424
  8.1061  4.0979  3.9955  2.8304  2.4444  1.0129  0.8147  0.7492  0.6305

 Free energy of the ion-electron system (eV)
  ---------------------------------------------------
  alpha Z        PSCENC =         0.09624365
  Ewald energy   TEWEN  =       177.52649805
  -Hartree energ DENC   =      -238.39029820
  -exchange      EXHF   =         0.00000000
  -V(xc)+E(xc)   XCENC  =        22.40246885
  PAW double counting   =       109.24233166     -109.42104889
  entropy T*S    EENTRO =        -0.22567583
  eigenvalues    EBANDS =       -80.57333222
  atomic energy  EATOM  =        99.56620307
  Solvation  Ediel_sol  =         0.00000000
  ---------------------------------------------------
  free energy    TOTEN  =       -19.77660985 eV

  energy without entropy =      -19.55093402  energy(sigma->0) =      -19.66377194


--------------------------------------------------------------------------------------------------------




--------------------------------------- Iteration      1(  15)  ---------------------------------------


    POTLOK:  cpu time    0.3782: real time    0.3781
    SETDIJ:  cpu time    0.0109: real time    0.0109
     EDDAV:  cpu time    0.1800: real time    0.1802
       DOS:  cpu time    0.0003: real time    0.0003
    CHARGE:  cpu time    0.1014: real time    0.1014
    MIXING:  cpu time    0.0141: real time    0.0141
    --------------------------------------------
      LOOP:  cpu time    0.6849: real time    0.6849

 eigenvalue-minimisations  :    48
 total energy-change (2. order) :-0.5920489E-03  (-0.1819066E-05)
 number of electron       8.0000053 magnetization       0.0000000
 augmentation part        0.1530186 magnetization       0.0000001

 Broyden mixing:
  rms(total) = 0.19806E-03    rms(broyden)= 0.19805E-03
  rms(prec ) = 0.30671E-03
  weight for this iteration     100.00

 eigenvalues of (default mixing * dielectric matrix)
  average eigenvalue GAMMA=   2.6214
  8.5899  4.8220  3.5181  2.7207  2.4529  0.9879  0.9879  0.7792  0.7264  0.6286

 Free energy of the ion-electron system (eV)
  ---------------------------------------------------
  alpha Z        PSCENC =         0.09624365
  Ewald energy   TEWEN  =       177.52649805
  -Hartree energ DENC   =      -238.42544326
  -exchange      EXHF   =         0.00000000
  -V(xc)+E(xc)   XCENC  =        22.40337259
  PAW double counting   =       109.34355994     -109.52251251
  entropy T*S    EENTRO =        -0.22567583
  eigenvalues    EBANDS =       -80.53944762
  atomic energy  EATOM  =        99.56620307
  Solvation  Ediel_sol  =         0.00000000
  ---------------------------------------------------
  free energy    TOTEN  =       -19.77720190 eV

  energy without entropy =      -19.55152607  energy(sigma->0) =      -19.66436399


--------------------------------------------------------------------------------------------------------




--------------------------------------- Iteration      1(  16)  ---------------------------------------


    POTLOK:  cpu time    0.3690: real time    0.3689
    SETDIJ:  cpu time    0.0105: real time    0.0105
     EDDAV:  cpu time    0.1870: real time    0.1869
       DOS:  cpu time    0.0003: real time    0.0003
    CHARGE:  cpu time    0.0990: real time    0.0990
    MIXING:  cpu time    0.0146: real time    0.0146
    --------------------------------------------
      LOOP:  cpu time    0.6803: real time    0.6801

 eigenvalue-minimisations  :    52
 total energy-change (2. order) :-0.4559396E-04  (-0.4633736E-07)
 number of electron       8.0000053 magnetization      -0.0000000
 augmentation part        0.1530193 magnetization      -0.0000000

 Broyden mixing:
  rms(total) = 0.13704E-03    rms(broyden)= 0.13704E-03
  rms(prec ) = 0.21951E-03
  weight for this iteration     100.00

 eigenvalues of (default mixing * dielectric matrix)
  average eigenvalue GAMMA=   2.6956
  9.0467  5.1937  3.4311  2.7464  2.7464  2.4331  1.0169  0.9451  0.7663  0.6273
  0.6983

 Free energy of the ion-electron system (eV)
  ---------------------------------------------------
  alpha Z        PSCENC =         0.09624365
  Ewald energy   TEWEN  =       177.52649805
  -Hartree energ DENC   =      -238.42152053
  -exchange      EXHF   =         0.00000000
  -V(xc)+E(xc)   XCENC  =        22.40296450
  PAW double counting   =       109.31612656     -109.49501084
  entropy T*S    EENTRO =        -0.22567583
  eigenvalues    EBANDS =       -80.54307613
  atomic energy  EATOM  =        99.56620307
  Solvation  Ediel_sol  =         0.00000000
  ---------------------------------------------------
  free energy    TOTEN  =       -19.77724750 eV

  energy without entropy =      -19.55157166  energy(sigma->0) =      -19.66440958


--------------------------------------------------------------------------------------------------------




--------------------------------------- Iteration      1(  17)  ---------------------------------------


    POTLOK:  cpu time    0.3696: real time    0.3694
    SETDIJ:  cpu time    0.0105: real time    0.0105
     EDDAV:  cpu time    0.1763: real time    0.1762
       DOS:  cpu time    0.0003: real time    0.0003
    CHARGE:  cpu time    0.1021: real time    0.1021
    MIXING:  cpu time    0.0154: real time    0.0154
    --------------------------------------------
      LOOP:  cpu time    0.6743: real time    0.6805

 eigenvalue-minimisations  :    48
 total energy-change (2. order) :-0.8282457E-04  (-0.1608563E-06)
 number of electron       8.0000053 magnetization      -0.0000000
 augmentation part        0.1530208 magnetization       0.0000000

 Broyden mixing:
  rms(total) = 0.38759E-04    rms(broyden)= 0.38751E-04
  rms(prec ) = 0.67067E-04
  weight for this iteration     100.00

 eigenvalues of (default mixing * dielectric matrix)
  average eigenvalue GAMMA=   2.6532
  9.4374  5.4031  3.9348  3.0896  2.6568  2.4416  1.0096  1.0311  0.8005  0.7429
  0.6256  0.6655

 Free energy of the ion-electron system (eV)
  ---------------------------------------------------
  alpha Z        PSCENC =         0.09624365
  Ewald energy   TEWEN  =       177.52649805
  -Hartree energ DENC   =      -238.41871776
  -exchange      EXHF   =         0.00000000
  -V(xc)+E(xc)   XCENC  =        22.40239077
  PAW double counting   =       109.25878992     -109.43753767
  entropy T*S    EENTRO =        -0.22567583
  eigenvalues    EBANDS =       -80.54552453
  atomic energy  EATOM  =        99.56620307
  Solvation  Ediel_sol  =         0.00000000
  ---------------------------------------------------
  free energy    TOTEN  =       -19.77733032 eV

  energy without entropy =      -19.55165449  energy(sigma->0) =      -19.66449240


--------------------------------------------------------------------------------------------------------




--------------------------------------- Iteration      1(  18)  ---------------------------------------


    POTLOK:  cpu time    0.3702: real time    0.3765
    SETDIJ:  cpu time    0.0105: real time    0.0105
     EDDAV:  cpu time    0.1773: real time    0.1772
       DOS:  cpu time    0.0003: real time    0.0003
    CHARGE:  cpu time    0.1006: real time    0.1006
    MIXING:  cpu time    0.0160: real time    0.0160
    --------------------------------------------
      LOOP:  cpu time    0.6749: real time    0.6746

 eigenvalue-minimisations  :    48
 total energy-change (2. order) :-0.4703850E-05  (-0.1018160E-07)
 number of electron       8.0000053 magnetization       0.0000000
 augmentation part        0.1530206 magnetization      -0.0000000

 Broyden mixing:
  rms(total) = 0.24691E-04    rms(broyden)= 0.24691E-04
  rms(prec ) = 0.49036E-04
  weight for this iteration     100.00

 eigenvalues of (default mixing * dielectric matrix)
  average eigenvalue GAMMA=   2.5769
  9.5006  5.4186  4.0784  3.0597  2.6489  2.4355  1.5890  1.0153  0.9520  0.7913
  0.7304  0.6238  0.6556

 Free energy of the ion-electron system (eV)
  ---------------------------------------------------
  alpha Z        PSCENC =         0.09624365
  Ewald energy   TEWEN  =       177.52649805
  -Hartree energ DENC   =      -238.42043538
  -exchange      EXHF   =         0.00000000
  -V(xc)+E(xc)   XCENC  =        22.40248747
  PAW double counting   =       109.26331299     -109.44206568
  entropy T*S    EENTRO =        -0.22567583
  eigenvalues    EBANDS =       -80.54390336
  atomic energy  EATOM  =        99.56620307
  Solvation  Ediel_sol  =         0.00000000
  ---------------------------------------------------
  free energy    TOTEN  =       -19.77733502 eV

  energy without entropy =      -19.55165919  energy(sigma->0) =      -19.66449711


--------------------------------------------------------------------------------------------------------




--------------------------------------- Iteration      1(  19)  ---------------------------------------


    POTLOK:  cpu time    0.3701: real time    0.3700
    SETDIJ:  cpu time    0.0105: real time    0.0105
     EDDAV:  cpu time    0.1774: real time    0.1773
       DOS:  cpu time    0.0003: real time    0.0003
    CHARGE:  cpu time    0.0994: real time    0.0993
    MIXING:  cpu time    0.0170: real time    0.0170
    --------------------------------------------
      LOOP:  cpu time    0.6746: real time    0.6744

 eigenvalue-minimisations  :    48
 total energy-change (2. order) :-0.7310666E-05  (-0.6734922E-08)
 number of electron       8.0000053 magnetization       0.0000000
 augmentation part        0.1530200 magnetization       0.0000000

 Broyden mixing:
  rms(total) = 0.14386E-04    rms(broyden)= 0.14379E-04
  rms(prec ) = 0.27040E-04
  weight for this iteration     100.00

 eigenvalues of (default mixing * dielectric matrix)
  average eigenvalue GAMMA=   2.6081
  9.5562  5.5972  4.2592  3.5474  2.9379  2.4400  2.5723  1.0072  1.0286  0.8210
  0.7692  0.7086  0.6208  0.6472

 Free energy of the ion-electron system (eV)
  ---------------------------------------------------
  alpha Z        PSCENC =         0.09624365
  Ewald energy   TEWEN  =       177.52649805
  -Hartree energ DENC   =      -238.42229951
  -exchange      EXHF   =         0.00000000
  -V(xc)+E(xc)   XCENC  =        22.40260112
  PAW double counting   =       109.27950659     -109.45829253
  entropy T*S    EENTRO =        -0.22567583
  eigenvalues    EBANDS =       -80.54212695
  atomic energy  EATOM  =        99.56620307
  Solvation  Ediel_sol  =         0.00000000
  ---------------------------------------------------
  free energy    TOTEN  =       -19.77734234 eV

  energy without entropy =      -19.55166650  energy(sigma->0) =      -19.66450442


--------------------------------------------------------------------------------------------------------




--------------------------------------- Iteration      1(  20)  ---------------------------------------


    POTLOK:  cpu time    0.3717: real time    0.3715
    SETDIJ:  cpu time    0.0105: real time    0.0105
     EDDAV:  cpu time    0.1766: real time    0.1765
       DOS:  cpu time    0.0003: real time    0.0003
    CHARGE:  cpu time    0.0999: real time    0.0998
    MIXING:  cpu time    0.0182: real time    0.0182
    --------------------------------------------
      LOOP:  cpu time    0.6770: real time    0.6768

 eigenvalue-minimisations  :    48
 total energy-change (2. order) :-0.2940555E-05  (-0.3291921E-08)
 number of electron       8.0000053 magnetization      -0.0000000
 augmentation part        0.1530202 magnetization       0.0000000

 Broyden mixing:
  rms(total) = 0.77262E-05    rms(broyden)= 0.77258E-05
  rms(prec ) = 0.16653E-04
  weight for this iteration     100.00

 eigenvalues of (default mixing * dielectric matrix)
  average eigenvalue GAMMA=   2.5252
  9.5597  5.6802  4.2477  3.8028  2.9055  2.6064  2.4310  1.1769  1.0147  0.9273
  0.8187  0.7461  0.6965  0.6212  0.6430

 Free energy of the ion-electron system (eV)
  ---------------------------------------------------
  alpha Z        PSCENC =         0.09624365
  Ewald energy   TEWEN  =       177.52649805
  -Hartree energ DENC   =      -238.42160241
  -exchange      EXHF   =         0.00000000
  -V(xc)+E(xc)   XCENC  =        22.40253480
  PAW double counting   =       109.28051016     -109.45930152
  entropy T*S    EENTRO =        -0.22567583
  eigenvalues    EBANDS =       -80.54275525
  atomic energy  EATOM  =        99.56620307
  Solvation  Ediel_sol  =         0.00000000
  ---------------------------------------------------
  free energy    TOTEN  =       -19.77734528 eV

  energy without entropy =      -19.55166944  energy(sigma->0) =      -19.66450736


--------------------------------------------------------------------------------------------------------




--------------------------------------- Iteration      1(  21)  ---------------------------------------


    POTLOK:  cpu time    0.3743: real time    0.3741
    SETDIJ:  cpu time    0.0105: real time    0.0105
     EDDAV:  cpu time    0.1758: real time    0.1757
       DOS:  cpu time    0.0003: real time    0.0003
    CHARGE:  cpu time    0.0989: real time    0.0989
    MIXING:  cpu time    0.0187: real time    0.0187
    --------------------------------------------
      LOOP:  cpu time    0.6785: real time    0.6782

 eigenvalue-minimisations  :    48
 total energy-change (2. order) :-0.1647621E-05  (-0.1114298E-08)
 number of electron       8.0000053 magnetization      -0.0000000
 augmentation part        0.1530204 magnetization      -0.0000000

 Broyden mixing:
  rms(total) = 0.61399E-05    rms(broyden)= 0.61385E-05
  rms(prec ) = 0.11979E-04
  weight for this iteration     100.00

 eigenvalues of (default mixing * dielectric matrix)
  average eigenvalue GAMMA=   2.5892
  9.5713  5.8668  4.7271  4.0476  2.9814  2.9814  2.4663  2.4663  1.0236  1.0006
  0.8360  0.7985  0.7280  0.6762  0.6225  0.6342

 Free energy of the ion-electron system (eV)
  ---------------------------------------------------
  alpha Z        PSCENC =         0.09624365
  Ewald energy   TEWEN  =       177.52649805
  -Hartree energ DENC   =      -238.42104682
  -exchange      EXHF   =         0.00000000
  -V(xc)+E(xc)   XCENC  =        22.40247674
  PAW double counting   =       109.27580157     -109.45458442
  entropy T*S    EENTRO =        -0.22567583
  eigenvalues    EBANDS =       -80.54326295
  atomic energy  EATOM  =        99.56620307
  Solvation  Ediel_sol  =         0.00000000
  ---------------------------------------------------
  free energy    TOTEN  =       -19.77734692 eV

  energy without entropy =      -19.55167109  energy(sigma->0) =      -19.66450901


--------------------------------------------------------------------------------------------------------




--------------------------------------- Iteration      1(  22)  ---------------------------------------


    POTLOK:  cpu time    0.3711: real time    0.3710
    SETDIJ:  cpu time    0.0105: real time    0.0105
     EDDAV:  cpu time    0.1756: real time    0.1755
       DOS:  cpu time    0.0003: real time    0.0003
    CHARGE:  cpu time    0.0992: real time    0.0992
    MIXING:  cpu time    0.0206: real time    0.0206
    --------------------------------------------
      LOOP:  cpu time    0.6772: real time    0.6770

 eigenvalue-minimisations  :    48
 total energy-change (2. order) :-0.1242853E-05  (-0.8018983E-09)
 number of electron       8.0000053 magnetization      -0.0000000
 augmentation part        0.1530204 magnetization      -0.0000000

 Broyden mixing:
  rms(total) = 0.27430E-05    rms(broyden)= 0.27429E-05
  rms(prec ) = 0.61790E-05
  weight for this iteration     100.00

 eigenvalues of (default mixing * dielectric matrix)
  average eigenvalue GAMMA=   2.5527
  9.5856  6.0821  5.2644  3.9543  3.4366  2.8584  2.4323  2.5530  1.0119  1.0618
  0.8763  0.8763  0.7509  0.7220  0.6744  0.6203  0.6362

 Free energy of the ion-electron system (eV)
  ---------------------------------------------------
  alpha Z        PSCENC =         0.09624365
  Ewald energy   TEWEN  =       177.52649805
  -Hartree energ DENC   =      -238.42159813
  -exchange      EXHF   =         0.00000000
  -V(xc)+E(xc)   XCENC  =        22.40250632
  PAW double counting   =       109.27409246     -109.45287025
  entropy T*S    EENTRO =        -0.22567583
  eigenvalues    EBANDS =       -80.54274751
  atomic energy  EATOM  =        99.56620307
  Solvation  Ediel_sol  =         0.00000000
  ---------------------------------------------------
  free energy    TOTEN  =       -19.77734817 eV

  energy without entropy =      -19.55167233  energy(sigma->0) =      -19.66451025


--------------------------------------------------------------------------------------------------------




--------------------------------------- Iteration      1(  23)  ---------------------------------------


    POTLOK:  cpu time    0.3722: real time    0.3721
    SETDIJ:  cpu time    0.0105: real time    0.0104
     EDDAV:  cpu time    0.1971: real time    0.1970
       DOS:  cpu time    0.0003: real time    0.0003
    --------------------------------------------
      LOOP:  cpu time    0.5800: real time    0.5798

 eigenvalue-minimisations  :    56
 total energy-change (2. order) :-0.2302126E-06  (-0.2066012E-09)
 number of electron       8.0000053 magnetization      -0.0000000
 augmentation part        0.1530204 magnetization      -0.0000000

 Free energy of the ion-electron system (eV)
  ---------------------------------------------------
  alpha Z        PSCENC =         0.09624365
  Ewald energy   TEWEN  =       177.52649805
  -Hartree energ DENC   =      -238.42191508
  -exchange      EXHF   =         0.00000000
  -V(xc)+E(xc)   XCENC  =        22.40252645
  PAW double counting   =       109.27490613     -109.45368520
  entropy T*S    EENTRO =        -0.22567583
  eigenvalues    EBANDS =       -80.54244965
  atomic energy  EATOM  =        99.56620307
  Solvation  Ediel_sol  =         0.00000000
  ---------------------------------------------------
  free energy    TOTEN  =       -19.77734840 eV

  energy without entropy =      -19.55167256  energy(sigma->0) =      -19.66451048


--------------------------------------------------------------------------------------------------------




 average (electrostatic) potential at core
  the test charge radii are     0.5201
  (the norm of the test charge is              1.0000)
       1 -41.5833       2 -41.5833       3 -41.5833       4 -41.5833       5 -41.5833
       6 -41.5833       7 -41.5833       8 -41.5833
 
 
 
 E-fermi :  -2.8710     XC(G=0):  -0.4966     alpha+bet : -0.1364


 spin component 1

 k-point     1 :       0.0000    0.0000    0.0000
  band No.  band energies     occupation 
      1     -14.3898      1.00000
      2     -11.5052      1.00000
      3     -11.5052      1.00000
      4      -2.8710      0.50000
      5      -2.8710      0.50000
      6      -0.1307      0.00000
      7      -0.1159      0.00000
      8      -0.1159      0.00000
      9       0.5706      0.00000
     10       0.5723      0.00000
     11       0.9181      0.00000
     12       0.9181      0.00000

 spin component 2

 k-point     1 :       0.0000    0.0000    0.0000
  band No.  band energies     occupation 
      1     -14.3898      1.00000
      2     -11.5052      1.00000
      3     -11.5052      1.00000
      4      -2.8710      0.50000
      5      -2.8710      0.50000
      6      -0.1305      0.00000
      7      -0.1159      0.00000
      8      -0.1159      0.00000
      9       0.5705      0.00000
     10       0.5725      0.00000
     11       0.9181      0.00000
     12       0.9181      0.00000


--------------------------------------------------------------------------------------------------------


 soft charge-density along one line, spin component           1
         0         1         2         3         4         5         6         7         8         9
 total charge-density along one line
 
 soft charge-density along one line, spin component           2
         0         1         2         3         4         5         6         7         8         9
 total charge-density along one line
 
 pseudopotential strength for first ion, spin component:           1
 -2.345  -4.041  -0.000   0.000   0.000
 -4.041  -6.878  -0.000   0.000   0.000
 -0.000  -0.000  -0.340   0.000  -0.000
  0.000   0.000   0.000  -0.335  -0.000
  0.000   0.000  -0.000  -0.000  -0.340
 pseudopotential strength for first ion, spin component:           2
 -2.345  -4.041  -0.000   0.000   0.000
 -4.041  -6.878  -0.000   0.000   0.000
 -0.000  -0.000  -0.340   0.000   0.000
  0.000   0.000   0.000  -0.335   0.000
  0.000   0.000   0.000   0.000  -0.340
 total augmentation occupancy for first ion, spin component:           1
  3.829  -0.819   0.000   0.000  -0.000
 -0.819   0.196  -0.000   0.000  -0.000
  0.000   0.000   0.000  -0.000   0.000
  0.000   0.000   0.000   0.056  -0.000
  0.000  -0.000   0.000   0.000   0.000
 total augmentation occupancy for first ion, spin component:           2
  0.000  -0.000   0.000   0.000   0.000
 -0.000   0.000  -0.000   0.000   0.000
  0.000   0.000   0.000   0.000   0.000
  0.000   0.000   0.000  -0.000  -0.000
  0.000   0.000   0.000  -0.000   0.000


------------------------ aborting loop because EDIFF is reached ----------------------------------------


    CHARGE:  cpu time    0.0960: real time    0.0960
    FORLOC:  cpu time    0.0151: real time    0.0151
    FORNL :  cpu time    0.0328: real time    0.0328
    STRESS:  cpu time    0.1241: real time    0.1241
    FORHAR:  cpu time    0.0354: real time    0.0354
    MIXING:  cpu time    0.0208: real time    0.0208
    OFIELD:  cpu time    0.0001: real time    0.0001

  FORCE on cell =-STRESS in cart. coord.  units (eV):
  Direction    XX          YY          ZZ          XY          YZ          ZX
  --------------------------------------------------------------------------------------
  Alpha Z     0.09624     0.09624     0.09624
  Ewald     -63.99905   -63.99905   305.52458    -0.00000    -0.00000    -0.00000
  Hartree     0.05957     0.05957   238.30273    -0.00000    -0.00000    -0.00000
  E(xc)     -25.20177   -25.20177   -22.48824     0.00000     0.00000     0.00000
  Local      21.62047    21.62047  -550.04197     0.00000    -0.00000    -0.00000
  n-local   -21.54695   -21.54695   -24.67067     0.00000     0.00000     0.00000
  augment     0.97229     0.97229     0.72941    -0.00000     0.00000     0.00000
  Kinetic    86.63353    86.63353    70.81842    -0.00000    -0.00000    -0.00000
  Fock        0.00000     0.00000     0.00000     0.00000     0.00000     0.00000
  -------------------------------------------------------------------------------------
  Total      -1.36568    -1.36568    18.27051    -0.00000    -0.00000    -0.00000
  in kB      -1.35066    -1.35066    18.06950    -0.00000    -0.00000    -0.00000
  external pressure =        5.12 kB  Pullay stress =        0.00 kB


 VOLUME and BASIS-vectors are now :
 -----------------------------------------------------------------------------
  energy-cutoff  :      300.00
  volume of cell :     1620.00
      direct lattice vectors                 reciprocal lattice vectors
    15.000000000  0.000000000  0.000000000     0.066666667 -0.000000000  0.000000000
     0.000000000 15.000000000  0.000000000     0.000000000  0.066666667  0.000000000
     0.000000000  0.000000000  7.200000000    -0.000000000 -0.000000000  0.138888889

  length of vectors
    15.000000000 15.000000000  7.200000000     0.066666667  0.066666667  0.138888889


 FORCES acting on ions
    electron-ion (+dipol)            ewald-force                    non-local-force                 convergence-correction
 -----------------------------------------------------------------------------------------------
   0.120E-16 -.177E-16 -.268E-15   -.103E-18 -.429E-18 0.000E+00   -.113E-28 -.162E-26 -.505E-28   0.220E-15 -.281E-16 0.154E-15
   0.119E-16 -.178E-16 0.183E-15   -.156E-18 -.208E-18 0.000E+00   -.720E-26 -.303E-27 0.505E-28   0.218E-15 -.277E-16 0.463E-16
   0.118E-16 -.179E-16 0.102E-14   0.261E-19 0.100E-18 0.178E-14   -.113E-26 0.242E-26 -.126E-27   0.217E-15 -.281E-16 -.209E-15
   0.119E-16 -.177E-16 0.135E-14   -.828E-19 0.894E-19 0.859E-15   0.388E-27 -.434E-26 -.252E-28   0.216E-15 -.293E-16 -.142E-15
   0.120E-16 -.177E-16 0.137E-14   -.914E-19 -.219E-18 0.888E-15   0.145E-26 -.162E-26 -.151E-27   0.214E-15 -.309E-16 0.390E-16
   0.119E-16 -.178E-16 0.170E-14   -.200E-18 -.230E-18 0.178E-14   -.818E-28 0.707E-27 -.631E-29   0.216E-15 -.301E-16 0.109E-15
   0.118E-16 -.178E-16 0.242E-14   -.181E-19 0.785E-19 0.000E+00   0.130E-26 0.000E+00 -.316E-28   0.217E-15 -.295E-16 0.135E-16
   0.119E-16 -.177E-16 0.282E-14   -.713E-19 0.299E-18 0.118E-17   -.361E-26 -.348E-26 0.694E-28   0.218E-15 -.295E-16 -.155E-16
 -----------------------------------------------------------------------------------------------
   0.953E-16 -.142E-15 0.106E-13   -.697E-18 -.518E-18 0.530E-14   -.889E-26 -.823E-26 -.271E-27   0.174E-14 -.233E-15 -.478E-17
 
 
 POSITION                                       TOTAL-FORCE (eV/Angst)
 -----------------------------------------------------------------------------------
      0.00000      0.00000      0.00000        -0.000000     -0.000000      0.000000
      0.00000      0.00000      0.90000        -0.000000      0.000000      0.000000
      0.00000      0.00000      1.80000         0.000000      0.000000     -0.000000
      0.00000      0.00000      2.70000        -0.000000     -0.000000     -0.000000
      0.00000      0.00000      3.60000         0.000000      0.000000     -0.000000
      0.00000      0.00000      4.50000        -0.000000     -0.000000     -0.000000
      0.00000      0.00000      5.40000        -0.000000     -0.000000      0.000000
      0.00000      0.00000      6.30000         0.000000      0.000000      0.000000
 -----------------------------------------------------------------------------------
    total drift:                                0.000000     -0.000000      0.000000


--------------------------------------------------------------------------------------------------------



  FREE ENERGIE OF THE ION-ELECTRON SYSTEM (eV)
  ---------------------------------------------------
  free  energy   TOTEN  =       -19.77734840 eV

  energy  without entropy=      -19.55167256  energy(sigma->0) =      -19.66451048
 


--------------------------------------------------------------------------------------------------------


    POTLOK:  cpu time    0.3829: real time    0.3828


--------------------------------------------------------------------------------------------------------


     LOOP+:  cpu time   14.5117: real time   14.5277
    4ORBIT:  cpu time    0.0000: real time    0.0000

 total amount of memory used by VASP MPI-rank0    74654. kBytes
=======================================================================

   base      :      30000. kBytes
   nonl-proj :       3220. kBytes
   fftplans  :       9622. kBytes
   grid      :      29949. kBytes
   one-center:         19. kBytes
   wavefun   :       1844. kBytes
 
  
  
 General timing and accounting informations for this job:
 ========================================================
  
                  Total CPU time used (sec):       15.183
                            User time (sec):       14.456
                          System time (sec):        0.727
                         Elapsed time (sec):       15.542
  
                   Maximum memory used (kb):      222988.
                   Average memory used (kb):           0.
  
                          Minor page faults:       200104
                          Major page faults:            0
                 Voluntary context switches:          984
