<?xml version="1.0" encoding="ISO-8859-1"?>
<modeling>
 <generator>
  <i name="program" type="string">vasp </i>
  <i name="version" type="string">5.4.4.18Apr17-6-g9f103f2a35  </i>
  <i name="subversion" type="string">(build Aug 24 2024 05:40:03) complex            parallel </i>
  <i name="platform" type="string">IFC22_IMPI </i>
  <i name="date" type="string">2024 11 22 </i>
  <i name="time" type="string">21:39:00 </i>
 </generator>
 <incar>
  <i type="string" name="PREC">normal</i>
  <i type="int" name="ISPIN">     2</i>
  <i type="int" name="ICHARG">     2</i>
  <i type="int" name="NELM">   100</i>
  <i name="EDIFF">      0.00000100</i>
  <i type="int" name="NSW">     0</i>
  <i name="ENCUT">    300.00000000</i>
  <i name="NUPDOWN">      0.00000000</i>
  <i type="int" name="ISMEAR">     0</i>
  <i name="SIGMA">      0.20000000</i>
  <i type="logical" name="LWAVE"> F  </i>
  <i type="logical" name="LCHARG"> F  </i>
  <v type="int" name="KPOINT_BSE">    -1     0     0     0</v>
  <i type="int" name="NELM">   100</i>
 </incar>
 <structure name="primitive_cell" >
  <crystal>
   <varray name="basis" >
    <v>      15.00000000       0.00000000       0.00000000 </v>
    <v>       0.00000000      15.00000000       0.00000000 </v>
    <v>       0.00000000       0.00000000       0.90000000 </v>
   </varray>
   <i name="volume">    202.50000000 </i>
   <varray name="rec_basis" >
    <v>       0.06666667      -0.00000000       0.00000000 </v>
    <v>       0.00000000       0.06666667       0.00000000 </v>
    <v>      -0.00000000      -0.00000000       1.11111111 </v>
   </varray>
  </crystal>
  <varray name="positions" >
   <v>       0.00000000       0.00000000       0.00000000 </v>
  </varray>
 </structure>
 <varray name="primitive_index" >
  <v type="int" >        1 </v>
 </varray>
 <kpoints>
  <generation param="Gamma">
   <v type="int" name="divisions">       1        1        1 </v>
   <v name="usershift">      0.00000000       0.00000000       0.00000000 </v>
   <v name="genvec1">      1.00000000      -0.00000000       0.00000000 </v>
   <v name="genvec2">      0.00000000       1.00000000       0.00000000 </v>
   <v name="genvec3">      0.00000000       0.00000000       1.00000000 </v>
   <v name="shift">      0.00000000       0.00000000       0.00000000 </v>
  </generation>
  <varray name="kpointlist" >
   <v>       0.00000000       0.00000000       0.00000000 </v>
  </varray>
  <varray name="weights" >
   <v>       1.00000000 </v>
  </varray>
 </kpoints>
 <parameters>
  <separator name="general" >
   <i type="string" name="SYSTEM">unknown system</i>
   <i type="logical" name="LCOMPAT"> F  </i>
  </separator>
  <separator name="electronic" >
   <i type="string" name="PREC">normal</i>
   <i name="ENMAX">    300.00000000</i>
   <i name="ENAUG">    400.00000000</i>
   <i name="EDIFF">      0.00000100</i>
   <i type="int" name="IALGO">    38</i>
   <i type="int" name="IWAVPR">    10</i>
   <i type="int" name="NBANDS">    12</i>
   <i name="NELECT">      8.00000000</i>
   <i type="int" name="TURBO">     0</i>
   <i type="int" name="IRESTART">     0</i>
   <i type="int" name="NREBOOT">     0</i>
   <i type="int" name="NMIN">     0</i>
   <i name="EREF">      0.00000000</i>
   <separator name="electronic smearing" >
    <i type="int" name="ISMEAR">     0</i>
    <i name="SIGMA">      0.20000000</i>
    <i name="KSPACING">      0.50000000</i>
    <i type="logical" name="KGAMMA"> T  </i>
   </separator>
   <separator name="electronic projectors" >
    <i type="logical" name="LREAL"> F  </i>
    <v name="ROPT">      0.00000000</v>
    <i type="int" name="LMAXPAW">  -100</i>
    <i type="int" name="LMAXMIX">     2</i>
    <i type="logical" name="NLSPLINE"> F  </i>
   </separator>
   <separator name="electronic startup" >
    <i type="int" name="ISTART">     0</i>
    <i type="int" name="ICHARG">     2</i>
    <i type="int" name="INIWAV">     1</i>
   </separator>
   <separator name="electronic spin" >
    <i type="int" name="ISPIN">     2</i>
    <i type="logical" name="LNONCOLLINEAR"> F  </i>
    <v name="MAGMOM">      0.00000000      0.00000000      0.00000000      0.00000000      0.00000000      0.00000000      0.00000000      0.00000000</v>
    <i name="NUPDOWN">      0.00000000</i>
    <i type="logical" name="LSORBIT"> F  </i>
    <v name="SAXIS">      0.00000000      0.00000000      1.00000000</v>
    <i type="logical" name="LSPIRAL"> F  </i>
    <v name="QSPIRAL">      0.00000000      0.00000000      0.00000000</v>
    <i type="logical" name="LZEROZ"> F  </i>
   </separator>
   <separator name="electronic exchange-correlation" >
    <i type="logical" name="LASPH"> F  </i>
    <i type="logical" name="LMETAGGA"> F  </i>
   </separator>
   <separator name="electronic convergence" >
    <i type="int" name="NELM">   100</i>
    <i type="int" name="NELMDL">    -5</i>
    <i type="int" name="NELMIN">     2</i>
    <i name="ENINI">    300.00000000</i>
    <separator name="electronic convergence detail" >
     <i type="logical" name="LDIAG"> T  </i>
     <i type="logical" name="LSUBROT"> F  </i>
     <i name="WEIMIN">      0.00000000</i>
     <i name="EBREAK">      0.00000002</i>
     <i name="DEPER">      0.30000000</i>
     <i type="int" name="NRMM">     4</i>
     <i name="TIME">      0.40000000</i>
    </separator>
   </separator>
   <separator name="electronic mixer" >
    <i name="AMIX">      0.40000000</i>
    <i name="BMIX">      1.00000000</i>
    <i name="AMIN">      0.10000000</i>
    <i name="AMIX_MAG">      1.60000000</i>
    <i name="BMIX_MAG">      1.00000000</i>
    <separator name="electronic mixer details" >
     <i type="int" name="IMIX">     4</i>
     <i type="logical" name="MIXFIRST"> F  </i>
     <i type="int" name="MAXMIX">   -45</i>
     <i name="WC">    100.00000000</i>
     <i type="int" name="INIMIX">     1</i>
     <i type="int" name="MIXPRE">     1</i>
     <i type="int" name="MREMOVE">     5</i>
    </separator>
   </separator>
   <separator name="electronic dipolcorrection" >
    <i type="logical" name="LDIPOL"> F  </i>
    <i type="logical" name="LMONO"> F  </i>
    <i type="int" name="IDIPOL">     0</i>
    <i name="EPSILON">      1.00000000</i>
    <v name="DIPOL">   -100.00000000   -100.00000000   -100.00000000</v>
    <i name="EFIELD">      0.00000000</i>
   </separator>
  </separator>
  <separator name="grids" >
   <i type="int" name="NGX">    64</i>
   <i type="int" name="NGY">    64</i>
   <i type="int" name="NGZ">    32</i>
   <i type="int" name="NGXF">   128</i>
   <i type="int" name="NGYF">   128</i>
   <i type="int" name="NGZF">    64</i>
   <i type="logical" name="ADDGRID"> F  </i>
  </separator>
  <separator name="ionic" >
   <i type="int" name="NSW">     0</i>
   <i type="int" name="IBRION">    -1</i>
   <i type="int" name="MDALGO">     0</i>
   <i type="int" name="ISIF">     2</i>
   <i name="PSTRESS">      0.00000000</i>
   <i name="EDIFFG">      0.00001000</i>
   <i type="int" name="NFREE">     0</i>
   <i name="POTIM">      0.50000000</i>
   <i name="SMASS">     -3.00000000</i>
   <i name="SCALEE">      1.00000000</i>
  </separator>
  <separator name="ionic md" >
   <i name="TEBEG">      0.00010000</i>
   <i name="TEEND">      0.00010000</i>
   <i type="int" name="NBLOCK">     1</i>
   <i type="int" name="KBLOCK">     1</i>
   <i type="int" name="NPACO">   256</i>
   <i name="APACO">     16.00000000</i>
  </separator>
  <separator name="symmetry" >
   <i type="int" name="ISYM">     2</i>
   <i name="SYMPREC">      0.00001000</i>
  </separator>
  <separator name="dos" >
   <i type="int" name="LORBIT">     0</i>
   <v name="RWIGS">     -1.00000000</v>
   <i type="int" name="NEDOS">   301</i>
   <i name="EMIN">     10.00000000</i>
   <i name="EMAX">    -10.00000000</i>
   <i name="EFERMI">      0.00000000</i>
  </separator>
  <separator name="writing" >
   <i type="int" name="NWRITE">     2</i>
   <i type="logical" name="LWAVE"> F  </i>
   <i type="logical" name="LDOWNSAMPLE"> F  </i>
   <i type="logical" name="LCHARG"> F  </i>
   <i type="logical" name="LPARD"> F  </i>
   <i type="logical" name="LVTOT"> F  </i>
   <i type="logical" name="LVHAR"> F  </i>
   <i type="logical" name="LELF"> F  </i>
   <i type="logical" name="LOPTICS"> F  </i>
   <v name="STM">      0.00000000      0.00000000      0.00000000      0.00000000      0.00000000      0.00000000      0.00000000</v>
  </separator>
  <separator name="performance" >
   <i type="int" name="NPAR">     4</i>
   <i type="int" name="NSIM">     4</i>
   <i type="int" name="NBLK">    -1</i>
   <i type="logical" name="LPLANE"> T  </i>
   <i type="logical" name="LSCALAPACK"> T  </i>
   <i type="logical" name="LSCAAWARE"> F  </i>
   <i type="logical" name="LSCALU"> F  </i>
   <i type="logical" name="LASYNC"> F  </i>
   <i type="logical" name="LORBITALREAL"> F  </i>
  </separator>
  <separator name="miscellaneous" >
   <i type="int" name="IDIOT">     3</i>
   <i type="int" name="ISPECIAL">     0</i>
   <i type="logical" name="LMUSIC"> F  </i>
   <v name="POMASS">      1.00000000</v>
   <v name="DARWINR">      0.00000000</v>
   <v name="DARWINV">      1.00000000</v>
   <i type="logical" name="LCORR"> T  </i>
  </separator>
  <i type="logical" name="GGA_COMPAT"> T  </i>
  <i type="logical" name="LBERRY"> F  </i>
  <i type="int" name="ICORELEVEL">     0</i>
  <i type="logical" name="LDAU"> F  </i>
  <i type="int" name="I_CONSTRAINED_M">     0</i>
  <separator name="electronic exchange-correlation" >
   <i type="string" name="GGA">--</i>
   <i type="int" name="VOSKOWN">     0</i>
   <i type="logical" name="LHFCALC"> F  </i>
   <i type="string" name="PRECFOCK"></i>
   <i type="logical" name="LSYMGRAD"> F  </i>
   <i type="logical" name="LHFONE"> F  </i>
   <i type="logical" name="LRHFCALC"> F  </i>
   <i type="logical" name="LTHOMAS"> F  </i>
   <i type="logical" name="LMODELHF"> F  </i>
   <i name="ENCUT4O">     -1.00000000</i>
   <i type="int" name="EXXOEP">     0</i>
   <i type="int" name="FOURORBIT">     0</i>
   <i name="AEXX">      0.00000000</i>
   <i name="HFALPHA">      0.00000000</i>
   <i name="MCALPHA">      0.00000000</i>
   <i name="ALDAX">      1.00000000</i>
   <i name="AGGAX">      1.00000000</i>
   <i name="ALDAC">      1.00000000</i>
   <i name="AGGAC">      1.00000000</i>
   <i type="int" name="NKREDX">     1</i>
   <i type="int" name="NKREDY">     1</i>
   <i type="int" name="NKREDZ">     1</i>
   <i type="logical" name="SHIFTRED"> F  </i>
   <i type="logical" name="ODDONLY"> F  </i>
   <i type="logical" name="EVENONLY"> F  </i>
   <i type="int" name="LMAXFOCK">     0</i>
   <i type="int" name="NMAXFOCKAE">     0</i>
   <i type="logical" name="LFOCKAEDFT"> F  </i>
   <i name="HFSCREEN">      0.00000000</i>
   <i name="HFSCREENC">      0.00000000</i>
   <i type="int" name="NBANDSGWLOW">     0</i>
  </separator>
  <separator name="vdW DFT" >
   <i type="logical" name="LUSE_VDW"> F  </i>
   <i name="Zab_VDW">     -0.84910000</i>
   <i name="PARAM1">      0.12340000</i>
   <i name="PARAM2">      1.00000000</i>
   <i name="PARAM3">      0.00000000</i>
  </separator>
  <separator name="model GW" >
   <i type="int" name="MODEL_GW">     0</i>
   <i name="MODEL_EPS0">    121.50000000</i>
   <i name="MODEL_ALPHA">      1.00000000</i>
  </separator>
  <separator name="linear response parameters" >
   <i type="logical" name="LEPSILON"> F  </i>
   <i type="logical" name="LRPA"> F  </i>
   <i type="logical" name="LNABLA"> F  </i>
   <i type="logical" name="LVEL"> F  </i>
   <i type="int" name="KINTER">     0</i>
   <i name="CSHIFT">      0.10000000</i>
   <i name="OMEGAMAX">     -1.00000000</i>
   <i name="DEG_THRESHOLD">      0.00200000</i>
   <i name="RTIME">     -0.10000000</i>
   <i name="WPLASMAI">      0.00000000</i>
   <v name="DFIELD">      0.00000000      0.00000000      0.00000000</v>
   <v name="WPLASMA">      0.00000000      0.00000000      0.00000000      0.00000000      0.00000000      0.00000000      0.00000000      0.00000000      0.00000000</v>
  </separator>
  <separator name="orbital magnetization" >
   <i type="logical" name="NUCIND"> F  </i>
   <v name="MAGPOS">      0.00000000      0.00000000      0.00000000</v>
   <i type="logical" name="LNICSALL"> T  </i>
   <i type="logical" name="ORBITALMAG"> F  </i>
   <i type="logical" name="LMAGBLOCH"> F  </i>
   <i type="logical" name="LCHIMAG"> F  </i>
   <i type="logical" name="LGAUGE"> T  </i>
   <i type="int" name="MAGATOM">     0</i>
   <v name="MAGDIPOL">      0.00000000      0.00000000      0.00000000</v>
   <v name="AVECCONST">      0.00000000      0.00000000      0.00000000</v>
  </separator>
  <separator name="response functions" >
   <i type="logical" name="LADDER"> F  </i>
   <i type="logical" name="LRPAFORCE"> F  </i>
   <i type="logical" name="LFXC"> F  </i>
   <i type="logical" name="LHARTREE"> T  </i>
   <i type="int" name="IBSE">     0</i>
   <v type="int" name="KPOINT">    -1     0     0     0</v>
   <i type="logical" name="LTCTE"> F  </i>
   <i type="logical" name="LTETE"> F  </i>
   <i type="logical" name="LTRIPLET"> F  </i>
   <i type="logical" name="LFXCEPS"> F  </i>
   <i type="logical" name="LFXHEG"> F  </i>
   <i type="int" name="NATURALO">     2</i>
   <i type="logical" name="L2ORDER"> F  </i>
   <i type="logical" name="LMP2LT"> F  </i>
   <i type="logical" name="LUSEW"> F  </i>
   <i name="ENCUTGW">     -2.00000000</i>
   <i name="ENCUTGWSOFT">     -2.00000000</i>
   <i name="ENCUTLF">     -1.00000000</i>
   <i type="int" name="LMAXMP2">    -1</i>
   <i name="SCISSOR">      0.00000000</i>
   <i type="int" name="NOMEGA">     0</i>
   <i type="int" name="NOMEGAR">     0</i>
   <i type="int" name="NBANDSGW">    -1</i>
   <i type="int" name="NBANDSO">    -1</i>
   <i type="int" name="NBANDSV">    -1</i>
   <i type="int" name="NELM">   100</i>
   <i type="int" name="NELMHF">     1</i>
   <i type="int" name="DIM">     3</i>
   <i type="int" name="ANTIRES">     0</i>
   <i name="OMEGAMAX">    -30.00000000</i>
   <i name="OMEGAMIN">    -30.00000000</i>
   <i name="OMEGATL">   -200.00000000</i>
   <i type="int" name="OMEGAGRID">   140</i>
   <i name="CSHIFT">     -0.10000000</i>
   <i type="logical" name="SELFENERGY"> F  </i>
   <i type="logical" name="LSPECTRAL"> F  </i>
   <i type="logical" name="LSPECTRALGW"> F  </i>
   <i type="logical" name="LSINGLES"> F  </i>
   <i type="logical" name="LFERMIGW"> F  </i>
   <i type="logical" name="ODDONLYGW"> F  </i>
   <i type="logical" name="EVENONLYGW"> F  </i>
   <i type="int" name="NKREDLFX">     1</i>
   <i type="int" name="NKREDLFY">     1</i>
   <i type="int" name="NKREDLFZ">     1</i>
   <i type="int" name="MAXMEM">  2800</i>
   <i type="int" name="TELESCOPE">     0</i>
   <i type="int" name="TAUPAR">     1</i>
   <i type="int" name="OMEGAPAR">    -1</i>
   <i name="LAMBDA">      1.00000000</i>
  </separator>
  <separator name="External order field" >
   <i name="OFIELD_KAPPA">      0.00000000</i>
   <v name="OFIELD_K">      0.00000000      0.00000000      0.00000000</v>
   <i name="OFIELD_Q6_NEAR">      0.00000000</i>
   <i name="OFIELD_Q6_FAR">      0.00000000</i>
   <i name="OFIELD_A">      0.00000000</i>
  </separator>
 </parameters>
 <atominfo>
  <atoms>       8 </atoms>
  <types>       1 </types>
  <array name="atoms" >
   <dimension dim="1">ion</dimension>
   <field type="string">element</field>
   <field type="int">atomtype</field>
   <set>
    <rc><c>H </c><c>   1</c></rc>
    <rc><c>H </c><c>   1</c></rc>
    <rc><c>H </c><c>   1</c></rc>
    <rc><c>H </c><c>   1</c></rc>
    <rc><c>H </c><c>   1</c></rc>
    <rc><c>H </c><c>   1</c></rc>
    <rc><c>H </c><c>   1</c></rc>
    <rc><c>H </c><c>   1</c></rc>
   </set>
  </array>
  <array name="atomtypes" >
   <dimension dim="1">type</dimension>
   <field type="int">atomspertype</field>
   <field type="string">element</field>
   <field>mass</field>
   <field>valence</field>
   <field type="string">pseudopotential</field>
   <set>
    <rc><c>   8</c><c>H </c><c>      1.00000000</c><c>      1.00000000</c><c>  PAW_PBE H 15Jun2001                   </c></rc>
   </set>
  </array>
 </atominfo>
 <structure name="initialpos" >
  <crystal>
   <varray name="basis" >
    <v>      15.00000000       0.00000000       0.00000000 </v>
    <v>       0.00000000      15.00000000       0.00000000 </v>
    <v>       0.00000000       0.00000000       7.20000000 </v>
   </varray>
   <i name="volume">   1620.00000000 </i>
   <varray name="rec_basis" >
    <v>       0.06666667      -0.00000000       0.00000000 </v>
    <v>       0.00000000       0.06666667       0.00000000 </v>
    <v>      -0.00000000      -0.00000000       0.13888889 </v>
   </varray>
  </crystal>
  <varray name="positions" >
   <v>       0.00000000       0.00000000       0.00000000 </v>
   <v>       0.00000000       0.00000000       0.12500000 </v>
   <v>       0.00000000       0.00000000       0.25000000 </v>
   <v>       0.00000000       0.00000000       0.37500000 </v>
   <v>       0.00000000       0.00000000       0.50000000 </v>
   <v>       0.00000000       0.00000000       0.62500000 </v>
   <v>       0.00000000       0.00000000       0.75000000 </v>
   <v>       0.00000000       0.00000000       0.87500000 </v>
  </varray>
 </structure>
 <calculation>
  <scstep>
   <time name="dav">    0.25    0.25</time>
   <time name="total">    0.62    0.62</time>
   <energy>
    <i name="alphaZ">      0.09624365 </i>
    <i name="ewald">    177.52649805 </i>
    <i name="hartreedc">   -207.34743169 </i>
    <i name="XCdc">     19.34823566 </i>
    <i name="pawpsdc">     17.07221949 </i>
    <i name="pawaedc">    -17.14324176 </i>
    <i name="eentropy">     -0.04472206 </i>
    <i name="bandstr">    -92.42656654 </i>
    <i name="atom">     99.56620307 </i>
    <i name="e_fr_energy">     -3.35256212 </i>
    <i name="e_wo_entrp">     -3.30784006 </i>
    <i name="e_0_energy">     -3.33020109 </i>
   </energy>
  </scstep>
  <scstep>
   <time name="dav">    0.21    0.21</time>
   <time name="total">    0.21    0.21</time>
   <energy>
    <i name="e_fr_energy">    -20.63977094 </i>
    <i name="e_wo_entrp">    -20.63977094 </i>
    <i name="e_0_energy">    -20.63977094 </i>
   </energy>
  </scstep>
  <scstep>
   <time name="dav">    0.31    0.31</time>
   <time name="total">    0.31    0.31</time>
   <energy>
    <i name="e_fr_energy">    -21.38794074 </i>
    <i name="e_wo_entrp">    -21.32861703 </i>
    <i name="e_0_energy">    -21.35827889 </i>
   </energy>
  </scstep>
  <scstep>
   <time name="dav">    0.19    0.19</time>
   <time name="total">    0.19    0.19</time>
   <energy>
    <i name="e_fr_energy">    -21.59802615 </i>
    <i name="e_wo_entrp">    -21.37236536 </i>
    <i name="e_0_energy">    -21.48519575 </i>
   </energy>
  </scstep>
  <scstep>
   <time name="dav">    0.20    0.20</time>
   <time name="total">    0.32    0.32</time>
   <energy>
    <i name="e_fr_energy">    -21.60115214 </i>
    <i name="e_wo_entrp">    -21.37547633 </i>
    <i name="e_0_energy">    -21.48831423 </i>
   </energy>
  </scstep>
  <scstep>
   <time name="dav">    0.18    0.18</time>
   <time name="total">    0.68    0.68</time>
   <energy>
    <i name="e_fr_energy">    -20.54195823 </i>
    <i name="e_wo_entrp">    -20.31628240 </i>
    <i name="e_0_energy">    -20.42912031 </i>
   </energy>
  </scstep>
  <scstep>
   <time name="dav">    0.20    0.20</time>
   <time name="total">    0.71    0.71</time>
   <energy>
    <i name="e_fr_energy">    -19.77741955 </i>
    <i name="e_wo_entrp">    -19.55174372 </i>
    <i name="e_0_energy">    -19.66458163 </i>
   </energy>
  </scstep>
  <scstep>
   <time name="dav">    0.18    0.18</time>
   <time name="total">    0.67    0.67</time>
   <energy>
    <i name="e_fr_energy">    -19.76613579 </i>
    <i name="e_wo_entrp">    -19.54045996 </i>
    <i name="e_0_energy">    -19.65329787 </i>
   </energy>
  </scstep>
  <scstep>
   <time name="dav">    0.20    0.20</time>
   <time name="total">    0.71    0.71</time>
   <energy>
    <i name="e_fr_energy">    -19.75914810 </i>
    <i name="e_wo_entrp">    -19.53347227 </i>
    <i name="e_0_energy">    -19.64631019 </i>
   </energy>
  </scstep>
  <scstep>
   <time name="dav">    0.18    0.19</time>
   <time name="total">    0.67    0.69</time>
   <energy>
    <i name="e_fr_energy">    -19.76615910 </i>
    <i name="e_wo_entrp">    -19.54048326 </i>
    <i name="e_0_energy">    -19.65332118 </i>
   </energy>
  </scstep>
  <scstep>
   <time name="dav">    0.18    0.18</time>
   <time name="total">    0.67    0.67</time>
   <energy>
    <i name="e_fr_energy">    -19.76936373 </i>
    <i name="e_wo_entrp">    -19.54368790 </i>
    <i name="e_0_energy">    -19.65652582 </i>
   </energy>
  </scstep>
  <scstep>
   <time name="dav">    0.20    0.20</time>
   <time name="total">    0.69    0.69</time>
   <energy>
    <i name="e_fr_energy">    -19.77555248 </i>
    <i name="e_wo_entrp">    -19.54987665 </i>
    <i name="e_0_energy">    -19.66271457 </i>
   </energy>
  </scstep>
  <scstep>
   <time name="dav">    0.18    0.18</time>
   <time name="total">    0.67    0.67</time>
   <energy>
    <i name="e_fr_energy">    -19.77605719 </i>
    <i name="e_wo_entrp">    -19.55038136 </i>
    <i name="e_0_energy">    -19.66321928 </i>
   </energy>
  </scstep>
  <scstep>
   <time name="dav">    0.18    0.18</time>
   <time name="total">    0.67    0.67</time>
   <energy>
    <i name="e_fr_energy">    -19.77660985 </i>
    <i name="e_wo_entrp">    -19.55093402 </i>
    <i name="e_0_energy">    -19.66377194 </i>
   </energy>
  </scstep>
  <scstep>
   <time name="dav">    0.18    0.18</time>
   <time name="total">    0.68    0.68</time>
   <energy>
    <i name="e_fr_energy">    -19.77720190 </i>
    <i name="e_wo_entrp">    -19.55152607 </i>
    <i name="e_0_energy">    -19.66436399 </i>
   </energy>
  </scstep>
  <scstep>
   <time name="dav">    0.19    0.19</time>
   <time name="total">    0.68    0.68</time>
   <energy>
    <i name="e_fr_energy">    -19.77724750 </i>
    <i name="e_wo_entrp">    -19.55157166 </i>
    <i name="e_0_energy">    -19.66440958 </i>
   </energy>
  </scstep>
  <scstep>
   <time name="dav">    0.18    0.18</time>
   <time name="total">    0.67    0.68</time>
   <energy>
    <i name="e_fr_energy">    -19.77733032 </i>
    <i name="e_wo_entrp">    -19.55165449 </i>
    <i name="e_0_energy">    -19.66449240 </i>
   </energy>
  </scstep>
  <scstep>
   <time name="dav">    0.18    0.18</time>
   <time name="total">    0.67    0.67</time>
   <energy>
    <i name="e_fr_energy">    -19.77733502 </i>
    <i name="e_wo_entrp">    -19.55165919 </i>
    <i name="e_0_energy">    -19.66449711 </i>
   </energy>
  </scstep>
  <scstep>
   <time name="dav">    0.18    0.18</time>
   <time name="total">    0.67    0.67</time>
   <energy>
    <i name="e_fr_energy">    -19.77734234 </i>
    <i name="e_wo_entrp">    -19.55166650 </i>
    <i name="e_0_energy">    -19.66450442 </i>
   </energy>
  </scstep>
  <scstep>
   <time name="dav">    0.18    0.18</time>
   <time name="total">    0.68    0.68</time>
   <energy>
    <i name="e_fr_energy">    -19.77734528 </i>
    <i name="e_wo_entrp">    -19.55166944 </i>
    <i name="e_0_energy">    -19.66450736 </i>
   </energy>
  </scstep>
  <scstep>
   <time name="dav">    0.18    0.18</time>
   <time name="total">    0.68    0.68</time>
   <energy>
    <i name="e_fr_energy">    -19.77734692 </i>
    <i name="e_wo_entrp">    -19.55167109 </i>
    <i name="e_0_energy">    -19.66450901 </i>
   </energy>
  </scstep>
  <scstep>
   <time name="dav">    0.18    0.18</time>
   <time name="total">    0.68    0.68</time>
   <energy>
    <i name="e_fr_energy">    -19.77734817 </i>
    <i name="e_wo_entrp">    -19.55167233 </i>
    <i name="e_0_energy">    -19.66451025 </i>
   </energy>
  </scstep>
  <scstep>
   <time name="dav">    0.20    0.20</time>
   <time name="total">    0.58    0.58</time>
   <energy>
    <i name="alphaZ">      0.09624365 </i>
    <i name="ewald">    177.52649805 </i>
    <i name="hartreedc">   -238.42191508 </i>
    <i name="XCdc">     22.40252645 </i>
    <i name="pawpsdc">    109.27490613 </i>
    <i name="pawaedc">   -109.45368520 </i>
    <i name="eentropy">     -0.22567583 </i>
    <i name="bandstr">    -80.54244965 </i>
    <i name="atom">     99.56620307 </i>
    <i name="e_fr_energy">    -19.77734840 </i>
    <i name="e_wo_entrp">    -19.55167256 </i>
    <i name="e_0_energy">    -19.66451048 </i>
   </energy>
  </scstep>
  <structure>
   <crystal>
    <varray name="basis" >
     <v>      15.00000000       0.00000000       0.00000000 </v>
     <v>       0.00000000      15.00000000       0.00000000 </v>
     <v>       0.00000000       0.00000000       7.20000000 </v>
    </varray>
    <i name="volume">   1620.00000000 </i>
    <varray name="rec_basis" >
     <v>       0.06666667      -0.00000000       0.00000000 </v>
     <v>       0.00000000       0.06666667       0.00000000 </v>
     <v>      -0.00000000      -0.00000000       0.13888889 </v>
    </varray>
   </crystal>
   <varray name="positions" >
    <v>       0.00000000       0.00000000       0.00000000 </v>
    <v>       0.00000000       0.00000000       0.12500000 </v>
    <v>       0.00000000       0.00000000       0.25000000 </v>
    <v>       0.00000000       0.00000000       0.37500000 </v>
    <v>       0.00000000       0.00000000       0.50000000 </v>
    <v>       0.00000000       0.00000000       0.62500000 </v>
    <v>       0.00000000       0.00000000       0.75000000 </v>
    <v>       0.00000000       0.00000000       0.87500000 </v>
   </varray>
  </structure>
  <varray name="forces" >
   <v>      -0.00000000      -0.00000000       0.00000000 </v>
   <v>      -0.00000000       0.00000000       0.00000000 </v>
   <v>       0.00000000       0.00000000      -0.00000000 </v>
   <v>      -0.00000000      -0.00000000      -0.00000000 </v>
   <v>       0.00000000       0.00000000      -0.00000000 </v>
   <v>      -0.00000000      -0.00000000      -0.00000000 </v>
   <v>      -0.00000000      -0.00000000       0.00000000 </v>
   <v>       0.00000000       0.00000000       0.00000000 </v>
  </varray>
  <varray name="stress" >
   <v>      -1.35065948      -0.00000000      -0.00000000 </v>
   <v>      -0.00000000      -1.35065948      -0.00000000 </v>
   <v>      -0.00000000      -0.00000000      18.06950063 </v>
  </varray>
  <energy>
   <i name="e_fr_energy">    -19.77734840 </i>
   <i name="e_wo_entrp">    -19.66451048 </i>
   <i name="e_0_energy">     -0.22567583 </i>
  </energy>
  <time name="totalsc">   14.51   14.53</time>
  <eigenvalues>
   <array>
    <dimension dim="1">band</dimension>
    <dimension dim="2">kpoint</dimension>
    <dimension dim="3">spin</dimension>
    <field>eigene</field>
    <field>occ</field>
    <set>
     <set comment="spin 1">
      <set comment="kpoint 1">
       <r>  -14.3898    1.0000 </r>
       <r>  -11.5052    1.0000 </r>
       <r>  -11.5052    1.0000 </r>
       <r>   -2.8710    0.5000 </r>
       <r>   -2.8710    0.5000 </r>
       <r>   -0.1307    0.0000 </r>
       <r>   -0.1159    0.0000 </r>
       <r>   -0.1159    0.0000 </r>
       <r>    0.5706    0.0000 </r>
       <r>    0.5723    0.0000 </r>
       <r>    0.9181    0.0000 </r>
       <r>    0.9181    0.0000 </r>
      </set>
     </set>
     <set comment="spin 2">
      <set comment="kpoint 1">
       <r>  -14.3898    1.0000 </r>
       <r>  -11.5052    1.0000 </r>
       <r>  -11.5052    1.0000 </r>
       <r>   -2.8710    0.5000 </r>
       <r>   -2.8710    0.5000 </r>
       <r>   -0.1305    0.0000 </r>
       <r>   -0.1159    0.0000 </r>
       <r>   -0.1159    0.0000 </r>
       <r>    0.5705    0.0000 </r>
       <r>    0.5725    0.0000 </r>
       <r>    0.9181    0.0000 </r>
       <r>    0.9181    0.0000 </r>
      </set>
     </set>
    </set>
   </array>
  </eigenvalues>
  <separator name="orbital magnetization" >
   <v name="MAGDIPOLOUT">      0.00000000      0.00000000      0.00000000</v>
  </separator>
  <dos>
   <i name="efermi">     -2.87095976 </i>
   <total>
    <array>
     <dimension dim="1">gridpoints</dimension>
     <dimension dim="2">spin</dimension>
     <field>energy</field>
     <field>total</field>
     <field>integrated</field>
     <set>
      <set comment="spin 1">
       <r>   -16.3898     0.0000     0.0000 </r>
       <r>   -16.3255     0.0000     0.0000 </r>
       <r>   -16.2611     0.0000     0.0000 </r>
       <r>   -16.1967     0.0000     0.0000 </r>
       <r>   -16.1324     0.0000     0.0000 </r>
       <r>   -16.0680     0.0000     0.0000 </r>
       <r>   -16.0037     0.0000     0.0000 </r>
       <r>   -15.9393     0.0000     0.0000 </r>
       <r>   -15.8749     0.0000     0.0000 </r>
       <r>   -15.8106     0.0000     0.0000 </r>
       <r>   -15.7462     0.0000     0.0000 </r>
       <r>   -15.6819     0.0000     0.0000 </r>
       <r>   -15.6175     0.0000     0.0000 </r>
       <r>   -15.5531     0.0000     0.0000 </r>
       <r>   -15.4888     0.0000     0.0000 </r>
       <r>   -15.4244     0.0000     0.0000 </r>
       <r>   -15.3601     0.0000     0.0000 </r>
       <r>   -15.2957     0.0000     0.0000 </r>
       <r>   -15.2313     0.0000     0.0000 </r>
       <r>   -15.1670     0.0000     0.0000 </r>
       <r>   -15.1026     0.0000     0.0000 </r>
       <r>   -15.0383     0.0001     0.0000 </r>
       <r>   -14.9739     0.0005     0.0000 </r>
       <r>   -14.9095     0.0031     0.0002 </r>
       <r>   -14.8452     0.0162     0.0013 </r>
       <r>   -14.7808     0.0686     0.0057 </r>
       <r>   -14.7165     0.2363     0.0209 </r>
       <r>   -14.6521     0.6641     0.0636 </r>
       <r>   -14.5878     1.5227     0.1616 </r>
       <r>   -14.5234     2.8478     0.3449 </r>
       <r>   -14.4590     4.3450     0.6246 </r>
       <r>   -14.3947     5.4083     0.9727 </r>
       <r>   -14.3303     5.4918     1.3261 </r>
       <r>   -14.2660     4.5496     1.6189 </r>
       <r>   -14.2016     3.0748     1.8168 </r>
       <r>   -14.1372     1.6952     1.9259 </r>
       <r>   -14.0729     0.7624     1.9750 </r>
       <r>   -14.0085     0.2797     1.9930 </r>
       <r>   -13.9442     0.0837     1.9984 </r>
       <r>   -13.8798     0.0204     1.9997 </r>
       <r>   -13.8154     0.0041     2.0000 </r>
       <r>   -13.7511     0.0007     2.0000 </r>
       <r>   -13.6867     0.0001     2.0000 </r>
       <r>   -13.6224     0.0000     2.0000 </r>
       <r>   -13.5580     0.0000     2.0000 </r>
       <r>   -13.4936     0.0000     2.0000 </r>
       <r>   -13.4293     0.0000     2.0000 </r>
       <r>   -13.3649     0.0000     2.0000 </r>
       <r>   -13.3006     0.0000     2.0000 </r>
       <r>   -13.2362     0.0000     2.0000 </r>
       <r>   -13.1718     0.0000     2.0000 </r>
       <r>   -13.1075     0.0000     2.0000 </r>
       <r>   -13.0431     0.0000     2.0000 </r>
       <r>   -12.9788     0.0000     2.0000 </r>
       <r>   -12.9144     0.0000     2.0000 </r>
       <r>   -12.8500     0.0000     2.0000 </r>
       <r>   -12.7857     0.0000     2.0000 </r>
       <r>   -12.7213     0.0000     2.0000 </r>
       <r>   -12.6570     0.0000     2.0000 </r>
       <r>   -12.5926     0.0000     2.0000 </r>
       <r>   -12.5282     0.0000     2.0000 </r>
       <r>   -12.4639     0.0000     2.0000 </r>
       <r>   -12.3995     0.0000     2.0000 </r>
       <r>   -12.3352     0.0000     2.0000 </r>
       <r>   -12.2708     0.0000     2.0000 </r>
       <r>   -12.2064     0.0000     2.0000 </r>
       <r>   -12.1421     0.0002     2.0000 </r>
       <r>   -12.0777     0.0014     2.0001 </r>
       <r>   -12.0134     0.0086     2.0007 </r>
       <r>   -11.9490     0.0427     2.0034 </r>
       <r>   -11.8846     0.1739     2.0146 </r>
       <r>   -11.8203     0.5778     2.0518 </r>
       <r>   -11.7559     1.5657     2.1526 </r>
       <r>   -11.6916     3.4604     2.3753 </r>
       <r>   -11.6272     6.2389     2.7768 </r>
       <r>   -11.5628     9.1762     3.3674 </r>
       <r>   -11.4985    11.0107     4.0760 </r>
       <r>   -11.4341    10.7785     4.7697 </r>
       <r>   -11.3698     8.6078     5.3237 </r>
       <r>   -11.3054     5.6081     5.6846 </r>
       <r>   -11.2410     2.9807     5.8765 </r>
       <r>   -11.1767     1.2923     5.9597 </r>
       <r>   -11.1123     0.4570     5.9891 </r>
       <r>   -11.0480     0.1318     5.9976 </r>
       <r>   -10.9836     0.0310     5.9995 </r>
       <r>   -10.9192     0.0059     5.9999 </r>
       <r>   -10.8549     0.0009     6.0000 </r>
       <r>   -10.7905     0.0001     6.0000 </r>
       <r>   -10.7262     0.0000     6.0000 </r>
       <r>   -10.6618     0.0000     6.0000 </r>
       <r>   -10.5974     0.0000     6.0000 </r>
       <r>   -10.5331     0.0000     6.0000 </r>
       <r>   -10.4687     0.0000     6.0000 </r>
       <r>   -10.4044     0.0000     6.0000 </r>
       <r>   -10.3400     0.0000     6.0000 </r>
       <r>   -10.2756     0.0000     6.0000 </r>
       <r>   -10.2113     0.0000     6.0000 </r>
       <r>   -10.1469     0.0000     6.0000 </r>
       <r>   -10.0826     0.0000     6.0000 </r>
       <r>   -10.0182     0.0000     6.0000 </r>
       <r>    -9.9538     0.0000     6.0000 </r>
       <r>    -9.8895     0.0000     6.0000 </r>
       <r>    -9.8251     0.0000     6.0000 </r>
       <r>    -9.7608     0.0000     6.0000 </r>
       <r>    -9.6964     0.0000     6.0000 </r>
       <r>    -9.6320     0.0000     6.0000 </r>
       <r>    -9.5677     0.0000     6.0000 </r>
       <r>    -9.5033     0.0000     6.0000 </r>
       <r>    -9.4390     0.0000     6.0000 </r>
       <r>    -9.3746     0.0000     6.0000 </r>
       <r>    -9.3103     0.0000     6.0000 </r>
       <r>    -9.2459     0.0000     6.0000 </r>
       <r>    -9.1815     0.0000     6.0000 </r>
       <r>    -9.1172     0.0000     6.0000 </r>
       <r>    -9.0528     0.0000     6.0000 </r>
       <r>    -8.9885     0.0000     6.0000 </r>
       <r>    -8.9241     0.0000     6.0000 </r>
       <r>    -8.8597     0.0000     6.0000 </r>
       <r>    -8.7954     0.0000     6.0000 </r>
       <r>    -8.7310     0.0000     6.0000 </r>
       <r>    -8.6667     0.0000     6.0000 </r>
       <r>    -8.6023     0.0000     6.0000 </r>
       <r>    -8.5379     0.0000     6.0000 </r>
       <r>    -8.4736     0.0000     6.0000 </r>
       <r>    -8.4092     0.0000     6.0000 </r>
       <r>    -8.3449     0.0000     6.0000 </r>
       <r>    -8.2805     0.0000     6.0000 </r>
       <r>    -8.2161     0.0000     6.0000 </r>
       <r>    -8.1518     0.0000     6.0000 </r>
       <r>    -8.0874     0.0000     6.0000 </r>
       <r>    -8.0231     0.0000     6.0000 </r>
       <r>    -7.9587     0.0000     6.0000 </r>
       <r>    -7.8943     0.0000     6.0000 </r>
       <r>    -7.8300     0.0000     6.0000 </r>
       <r>    -7.7656     0.0000     6.0000 </r>
       <r>    -7.7013     0.0000     6.0000 </r>
       <r>    -7.6369     0.0000     6.0000 </r>
       <r>    -7.5725     0.0000     6.0000 </r>
       <r>    -7.5082     0.0000     6.0000 </r>
       <r>    -7.4438     0.0000     6.0000 </r>
       <r>    -7.3795     0.0000     6.0000 </r>
       <r>    -7.3151     0.0000     6.0000 </r>
       <r>    -7.2507     0.0000     6.0000 </r>
       <r>    -7.1864     0.0000     6.0000 </r>
       <r>    -7.1220     0.0000     6.0000 </r>
       <r>    -7.0577     0.0000     6.0000 </r>
       <r>    -6.9933     0.0000     6.0000 </r>
       <r>    -6.9289     0.0000     6.0000 </r>
       <r>    -6.8646     0.0000     6.0000 </r>
       <r>    -6.8002     0.0000     6.0000 </r>
       <r>    -6.7359     0.0000     6.0000 </r>
       <r>    -6.6715     0.0000     6.0000 </r>
       <r>    -6.6071     0.0000     6.0000 </r>
       <r>    -6.5428     0.0000     6.0000 </r>
       <r>    -6.4784     0.0000     6.0000 </r>
       <r>    -6.4141     0.0000     6.0000 </r>
       <r>    -6.3497     0.0000     6.0000 </r>
       <r>    -6.2853     0.0000     6.0000 </r>
       <r>    -6.2210     0.0000     6.0000 </r>
       <r>    -6.1566     0.0000     6.0000 </r>
       <r>    -6.0923     0.0000     6.0000 </r>
       <r>    -6.0279     0.0000     6.0000 </r>
       <r>    -5.9635     0.0000     6.0000 </r>
       <r>    -5.8992     0.0000     6.0000 </r>
       <r>    -5.8348     0.0000     6.0000 </r>
       <r>    -5.7705     0.0000     6.0000 </r>
       <r>    -5.7061     0.0000     6.0000 </r>
       <r>    -5.6417     0.0000     6.0000 </r>
       <r>    -5.5774     0.0000     6.0000 </r>
       <r>    -5.5130     0.0000     6.0000 </r>
       <r>    -5.4487     0.0000     6.0000 </r>
       <r>    -5.3843     0.0000     6.0000 </r>
       <r>    -5.3199     0.0000     6.0000 </r>
       <r>    -5.2556     0.0000     6.0000 </r>
       <r>    -5.1912     0.0000     6.0000 </r>
       <r>    -5.1269     0.0000     6.0000 </r>
       <r>    -5.0625     0.0000     6.0000 </r>
       <r>    -4.9981     0.0000     6.0000 </r>
       <r>    -4.9338     0.0000     6.0000 </r>
       <r>    -4.8694     0.0000     6.0000 </r>
       <r>    -4.8051     0.0000     6.0000 </r>
       <r>    -4.7407     0.0000     6.0000 </r>
       <r>    -4.6763     0.0000     6.0000 </r>
       <r>    -4.6120     0.0000     6.0000 </r>
       <r>    -4.5476     0.0000     6.0000 </r>
       <r>    -4.4833     0.0000     6.0000 </r>
       <r>    -4.4189     0.0000     6.0000 </r>
       <r>    -4.3545     0.0000     6.0000 </r>
       <r>    -4.2902     0.0000     6.0000 </r>
       <r>    -4.2258     0.0000     6.0000 </r>
       <r>    -4.1615     0.0000     6.0000 </r>
       <r>    -4.0971     0.0000     6.0000 </r>
       <r>    -4.0328     0.0000     6.0000 </r>
       <r>    -3.9684     0.0000     6.0000 </r>
       <r>    -3.9040     0.0000     6.0000 </r>
       <r>    -3.8397     0.0000     6.0000 </r>
       <r>    -3.7753     0.0000     6.0000 </r>
       <r>    -3.7110     0.0000     6.0000 </r>
       <r>    -3.6466     0.0000     6.0000 </r>
       <r>    -3.5822     0.0000     6.0000 </r>
       <r>    -3.5179     0.0001     6.0000 </r>
       <r>    -3.4535     0.0010     6.0001 </r>
       <r>    -3.3892     0.0065     6.0005 </r>
       <r>    -3.3248     0.0337     6.0027 </r>
       <r>    -3.2604     0.1416     6.0118 </r>
       <r>    -3.1961     0.4855     6.0430 </r>
       <r>    -3.1317     1.3580     6.1304 </r>
       <r>    -3.0674     3.0985     6.3298 </r>
       <r>    -3.0030     5.7669     6.7010 </r>
       <r>    -2.9386     8.7562     7.2645 </r>
       <r>    -2.8743    10.8462     7.9626 </r>
       <r>    -2.8099    10.9605     8.6680 </r>
       <r>    -2.7456     9.0360     9.2496 </r>
       <r>    -2.6812     6.0773     9.6407 </r>
       <r>    -2.6168     3.3344     9.8553 </r>
       <r>    -2.5525     1.4924     9.9514 </r>
       <r>    -2.4881     0.5449     9.9864 </r>
       <r>    -2.4238     0.1623     9.9969 </r>
       <r>    -2.3594     0.0394     9.9994 </r>
       <r>    -2.2950     0.0078     9.9999 </r>
       <r>    -2.2307     0.0013    10.0000 </r>
       <r>    -2.1663     0.0002    10.0000 </r>
       <r>    -2.1020     0.0000    10.0000 </r>
       <r>    -2.0376     0.0000    10.0000 </r>
       <r>    -1.9732     0.0000    10.0000 </r>
       <r>    -1.9089     0.0000    10.0000 </r>
       <r>    -1.8445     0.0000    10.0000 </r>
       <r>    -1.7802     0.0000    10.0000 </r>
       <r>    -1.7158     0.0000    10.0000 </r>
       <r>    -1.6514     0.0000    10.0000 </r>
       <r>    -1.5871     0.0000    10.0000 </r>
       <r>    -1.5227     0.0000    10.0000 </r>
       <r>    -1.4584     0.0000    10.0000 </r>
       <r>    -1.3940     0.0000    10.0000 </r>
       <r>    -1.3296     0.0000    10.0000 </r>
       <r>    -1.2653     0.0000    10.0000 </r>
       <r>    -1.2009     0.0000    10.0000 </r>
       <r>    -1.1366     0.0000    10.0000 </r>
       <r>    -1.0722     0.0000    10.0000 </r>
       <r>    -1.0078     0.0000    10.0000 </r>
       <r>    -0.9435     0.0000    10.0000 </r>
       <r>    -0.8791     0.0000    10.0000 </r>
       <r>    -0.8148     0.0000    10.0000 </r>
       <r>    -0.7504     0.0004    10.0000 </r>
       <r>    -0.6860     0.0027    10.0002 </r>
       <r>    -0.6217     0.0158    10.0012 </r>
       <r>    -0.5573     0.0768    10.0062 </r>
       <r>    -0.4930     0.3046    10.0258 </r>
       <r>    -0.4286     0.9859    10.0892 </r>
       <r>    -0.3642     2.6042    10.2568 </r>
       <r>    -0.2999     5.6139    10.6181 </r>
       <r>    -0.2355     9.8774    11.2538 </r>
       <r>    -0.1712    14.1845    12.1667 </r>
       <r>    -0.1068    16.6261    13.2368 </r>
       <r>    -0.0424    15.9066    14.2605 </r>
       <r>     0.0219    12.4235    15.0601 </r>
       <r>     0.0863     7.9317    15.5706 </r>
       <r>     0.1506     4.1899    15.8403 </r>
       <r>     0.2150     2.0213    15.9703 </r>
       <r>     0.2794     1.4497    16.0636 </r>
       <r>     0.3437     2.2990    16.2116 </r>
       <r>     0.4081     4.4183    16.4960 </r>
       <r>     0.4724     7.3764    16.9707 </r>
       <r>     0.5368    10.1921    17.6267 </r>
       <r>     0.6012    11.7448    18.3826 </r>
       <r>     0.6655    11.7077    19.1361 </r>
       <r>     0.7299    10.9533    19.8410 </r>
       <r>     0.7942    10.7319    20.5317 </r>
       <r>     0.8586    11.3641    21.2631 </r>
       <r>     0.9230    11.8969    22.0288 </r>
       <r>     0.9873    11.1169    22.7443 </r>
       <r>     1.0517     8.7707    23.3088 </r>
       <r>     1.1160     5.7133    23.6765 </r>
       <r>     1.1804     3.0485    23.8727 </r>
       <r>     1.2447     1.3287    23.9582 </r>
       <r>     1.3091     0.4726    23.9886 </r>
       <r>     1.3735     0.1371    23.9974 </r>
       <r>     1.4378     0.0325    23.9995 </r>
       <r>     1.5022     0.0063    23.9999 </r>
       <r>     1.5665     0.0010    24.0000 </r>
       <r>     1.6309     0.0001    24.0000 </r>
       <r>     1.6953     0.0000    24.0000 </r>
       <r>     1.7596     0.0000    24.0000 </r>
       <r>     1.8240     0.0000    24.0000 </r>
       <r>     1.8883     0.0000    24.0000 </r>
       <r>     1.9527     0.0000    24.0000 </r>
       <r>     2.0171     0.0000    24.0000 </r>
       <r>     2.0814     0.0000    24.0000 </r>
       <r>     2.1458     0.0000    24.0000 </r>
       <r>     2.2101     0.0000    24.0000 </r>
       <r>     2.2745     0.0000    24.0000 </r>
       <r>     2.3389     0.0000    24.0000 </r>
       <r>     2.4032     0.0000    24.0000 </r>
       <r>     2.4676     0.0000    24.0000 </r>
       <r>     2.5319     0.0000    24.0000 </r>
       <r>     2.5963     0.0000    24.0000 </r>
       <r>     2.6607     0.0000    24.0000 </r>
       <r>     2.7250     0.0000    24.0000 </r>
       <r>     2.7894     0.0000    24.0000 </r>
       <r>     2.8537     0.0000    24.0000 </r>
       <r>     2.9181     0.0000    24.0000 </r>
      </set>
      <set comment="spin 2">
       <r>   -16.3898     0.0000     0.0000 </r>
       <r>   -16.3255     0.0000     0.0000 </r>
       <r>   -16.2611     0.0000     0.0000 </r>
       <r>   -16.1967     0.0000     0.0000 </r>
       <r>   -16.1324     0.0000     0.0000 </r>
       <r>   -16.0680     0.0000     0.0000 </r>
       <r>   -16.0037     0.0000     0.0000 </r>
       <r>   -15.9393     0.0000     0.0000 </r>
       <r>   -15.8749     0.0000     0.0000 </r>
       <r>   -15.8106     0.0000     0.0000 </r>
       <r>   -15.7462     0.0000     0.0000 </r>
       <r>   -15.6819     0.0000     0.0000 </r>
       <r>   -15.6175     0.0000     0.0000 </r>
       <r>   -15.5531     0.0000     0.0000 </r>
       <r>   -15.4888     0.0000     0.0000 </r>
       <r>   -15.4244     0.0000     0.0000 </r>
       <r>   -15.3601     0.0000     0.0000 </r>
       <r>   -15.2957     0.0000     0.0000 </r>
       <r>   -15.2313     0.0000     0.0000 </r>
       <r>   -15.1670     0.0000     0.0000 </r>
       <r>   -15.1026     0.0000     0.0000 </r>
       <r>   -15.0383     0.0001     0.0000 </r>
       <r>   -14.9739     0.0005     0.0000 </r>
       <r>   -14.9095     0.0031     0.0002 </r>
       <r>   -14.8452     0.0162     0.0013 </r>
       <r>   -14.7808     0.0686     0.0057 </r>
       <r>   -14.7165     0.2363     0.0209 </r>
       <r>   -14.6521     0.6641     0.0636 </r>
       <r>   -14.5878     1.5227     0.1616 </r>
       <r>   -14.5234     2.8478     0.3449 </r>
       <r>   -14.4590     4.3450     0.6246 </r>
       <r>   -14.3947     5.4083     0.9727 </r>
       <r>   -14.3303     5.4918     1.3261 </r>
       <r>   -14.2660     4.5496     1.6189 </r>
       <r>   -14.2016     3.0748     1.8168 </r>
       <r>   -14.1372     1.6952     1.9259 </r>
       <r>   -14.0729     0.7624     1.9750 </r>
       <r>   -14.0085     0.2797     1.9930 </r>
       <r>   -13.9442     0.0837     1.9984 </r>
       <r>   -13.8798     0.0204     1.9997 </r>
       <r>   -13.8154     0.0041     2.0000 </r>
       <r>   -13.7511     0.0007     2.0000 </r>
       <r>   -13.6867     0.0001     2.0000 </r>
       <r>   -13.6224     0.0000     2.0000 </r>
       <r>   -13.5580     0.0000     2.0000 </r>
       <r>   -13.4936     0.0000     2.0000 </r>
       <r>   -13.4293     0.0000     2.0000 </r>
       <r>   -13.3649     0.0000     2.0000 </r>
       <r>   -13.3006     0.0000     2.0000 </r>
       <r>   -13.2362     0.0000     2.0000 </r>
       <r>   -13.1718     0.0000     2.0000 </r>
       <r>   -13.1075     0.0000     2.0000 </r>
       <r>   -13.0431     0.0000     2.0000 </r>
       <r>   -12.9788     0.0000     2.0000 </r>
       <r>   -12.9144     0.0000     2.0000 </r>
       <r>   -12.8500     0.0000     2.0000 </r>
       <r>   -12.7857     0.0000     2.0000 </r>
       <r>   -12.7213     0.0000     2.0000 </r>
       <r>   -12.6570     0.0000     2.0000 </r>
       <r>   -12.5926     0.0000     2.0000 </r>
       <r>   -12.5282     0.0000     2.0000 </r>
       <r>   -12.4639     0.0000     2.0000 </r>
       <r>   -12.3995     0.0000     2.0000 </r>
       <r>   -12.3352     0.0000     2.0000 </r>
       <r>   -12.2708     0.0000     2.0000 </r>
       <r>   -12.2064     0.0000     2.0000 </r>
       <r>   -12.1421     0.0002     2.0000 </r>
       <r>   -12.0777     0.0014     2.0001 </r>
       <r>   -12.0134     0.0086     2.0007 </r>
       <r>   -11.9490     0.0427     2.0034 </r>
       <r>   -11.8846     0.1739     2.0146 </r>
       <r>   -11.8203     0.5778     2.0518 </r>
       <r>   -11.7559     1.5656     2.1526 </r>
       <r>   -11.6916     3.4603     2.3753 </r>
       <r>   -11.6272     6.2388     2.7768 </r>
       <r>   -11.5628     9.1762     3.3674 </r>
       <r>   -11.4985    11.0107     4.0760 </r>
       <r>   -11.4341    10.7785     4.7697 </r>
       <r>   -11.3698     8.6078     5.3237 </r>
       <r>   -11.3054     5.6081     5.6846 </r>
       <r>   -11.2410     2.9807     5.8765 </r>
       <r>   -11.1767     1.2923     5.9597 </r>
       <r>   -11.1123     0.4570     5.9891 </r>
       <r>   -11.0480     0.1318     5.9976 </r>
       <r>   -10.9836     0.0310     5.9995 </r>
       <r>   -10.9192     0.0060     5.9999 </r>
       <r>   -10.8549     0.0009     6.0000 </r>
       <r>   -10.7905     0.0001     6.0000 </r>
       <r>   -10.7262     0.0000     6.0000 </r>
       <r>   -10.6618     0.0000     6.0000 </r>
       <r>   -10.5974     0.0000     6.0000 </r>
       <r>   -10.5331     0.0000     6.0000 </r>
       <r>   -10.4687     0.0000     6.0000 </r>
       <r>   -10.4044     0.0000     6.0000 </r>
       <r>   -10.3400     0.0000     6.0000 </r>
       <r>   -10.2756     0.0000     6.0000 </r>
       <r>   -10.2113     0.0000     6.0000 </r>
       <r>   -10.1469     0.0000     6.0000 </r>
       <r>   -10.0826     0.0000     6.0000 </r>
       <r>   -10.0182     0.0000     6.0000 </r>
       <r>    -9.9538     0.0000     6.0000 </r>
       <r>    -9.8895     0.0000     6.0000 </r>
       <r>    -9.8251     0.0000     6.0000 </r>
       <r>    -9.7608     0.0000     6.0000 </r>
       <r>    -9.6964     0.0000     6.0000 </r>
       <r>    -9.6320     0.0000     6.0000 </r>
       <r>    -9.5677     0.0000     6.0000 </r>
       <r>    -9.5033     0.0000     6.0000 </r>
       <r>    -9.4390     0.0000     6.0000 </r>
       <r>    -9.3746     0.0000     6.0000 </r>
       <r>    -9.3103     0.0000     6.0000 </r>
       <r>    -9.2459     0.0000     6.0000 </r>
       <r>    -9.1815     0.0000     6.0000 </r>
       <r>    -9.1172     0.0000     6.0000 </r>
       <r>    -9.0528     0.0000     6.0000 </r>
       <r>    -8.9885     0.0000     6.0000 </r>
       <r>    -8.9241     0.0000     6.0000 </r>
       <r>    -8.8597     0.0000     6.0000 </r>
       <r>    -8.7954     0.0000     6.0000 </r>
       <r>    -8.7310     0.0000     6.0000 </r>
       <r>    -8.6667     0.0000     6.0000 </r>
       <r>    -8.6023     0.0000     6.0000 </r>
       <r>    -8.5379     0.0000     6.0000 </r>
       <r>    -8.4736     0.0000     6.0000 </r>
       <r>    -8.4092     0.0000     6.0000 </r>
       <r>    -8.3449     0.0000     6.0000 </r>
       <r>    -8.2805     0.0000     6.0000 </r>
       <r>    -8.2161     0.0000     6.0000 </r>
       <r>    -8.1518     0.0000     6.0000 </r>
       <r>    -8.0874     0.0000     6.0000 </r>
       <r>    -8.0231     0.0000     6.0000 </r>
       <r>    -7.9587     0.0000     6.0000 </r>
       <r>    -7.8943     0.0000     6.0000 </r>
       <r>    -7.8300     0.0000     6.0000 </r>
       <r>    -7.7656     0.0000     6.0000 </r>
       <r>    -7.7013     0.0000     6.0000 </r>
       <r>    -7.6369     0.0000     6.0000 </r>
       <r>    -7.5725     0.0000     6.0000 </r>
       <r>    -7.5082     0.0000     6.0000 </r>
       <r>    -7.4438     0.0000     6.0000 </r>
       <r>    -7.3795     0.0000     6.0000 </r>
       <r>    -7.3151     0.0000     6.0000 </r>
       <r>    -7.2507     0.0000     6.0000 </r>
       <r>    -7.1864     0.0000     6.0000 </r>
       <r>    -7.1220     0.0000     6.0000 </r>
       <r>    -7.0577     0.0000     6.0000 </r>
       <r>    -6.9933     0.0000     6.0000 </r>
       <r>    -6.9289     0.0000     6.0000 </r>
       <r>    -6.8646     0.0000     6.0000 </r>
       <r>    -6.8002     0.0000     6.0000 </r>
       <r>    -6.7359     0.0000     6.0000 </r>
       <r>    -6.6715     0.0000     6.0000 </r>
       <r>    -6.6071     0.0000     6.0000 </r>
       <r>    -6.5428     0.0000     6.0000 </r>
       <r>    -6.4784     0.0000     6.0000 </r>
       <r>    -6.4141     0.0000     6.0000 </r>
       <r>    -6.3497     0.0000     6.0000 </r>
       <r>    -6.2853     0.0000     6.0000 </r>
       <r>    -6.2210     0.0000     6.0000 </r>
       <r>    -6.1566     0.0000     6.0000 </r>
       <r>    -6.0923     0.0000     6.0000 </r>
       <r>    -6.0279     0.0000     6.0000 </r>
       <r>    -5.9635     0.0000     6.0000 </r>
       <r>    -5.8992     0.0000     6.0000 </r>
       <r>    -5.8348     0.0000     6.0000 </r>
       <r>    -5.7705     0.0000     6.0000 </r>
       <r>    -5.7061     0.0000     6.0000 </r>
       <r>    -5.6417     0.0000     6.0000 </r>
       <r>    -5.5774     0.0000     6.0000 </r>
       <r>    -5.5130     0.0000     6.0000 </r>
       <r>    -5.4487     0.0000     6.0000 </r>
       <r>    -5.3843     0.0000     6.0000 </r>
       <r>    -5.3199     0.0000     6.0000 </r>
       <r>    -5.2556     0.0000     6.0000 </r>
       <r>    -5.1912     0.0000     6.0000 </r>
       <r>    -5.1269     0.0000     6.0000 </r>
       <r>    -5.0625     0.0000     6.0000 </r>
       <r>    -4.9981     0.0000     6.0000 </r>
       <r>    -4.9338     0.0000     6.0000 </r>
       <r>    -4.8694     0.0000     6.0000 </r>
       <r>    -4.8051     0.0000     6.0000 </r>
       <r>    -4.7407     0.0000     6.0000 </r>
       <r>    -4.6763     0.0000     6.0000 </r>
       <r>    -4.6120     0.0000     6.0000 </r>
       <r>    -4.5476     0.0000     6.0000 </r>
       <r>    -4.4833     0.0000     6.0000 </r>
       <r>    -4.4189     0.0000     6.0000 </r>
       <r>    -4.3545     0.0000     6.0000 </r>
       <r>    -4.2902     0.0000     6.0000 </r>
       <r>    -4.2258     0.0000     6.0000 </r>
       <r>    -4.1615     0.0000     6.0000 </r>
       <r>    -4.0971     0.0000     6.0000 </r>
       <r>    -4.0328     0.0000     6.0000 </r>
       <r>    -3.9684     0.0000     6.0000 </r>
       <r>    -3.9040     0.0000     6.0000 </r>
       <r>    -3.8397     0.0000     6.0000 </r>
       <r>    -3.7753     0.0000     6.0000 </r>
       <r>    -3.7110     0.0000     6.0000 </r>
       <r>    -3.6466     0.0000     6.0000 </r>
       <r>    -3.5822     0.0000     6.0000 </r>
       <r>    -3.5179     0.0001     6.0000 </r>
       <r>    -3.4535     0.0010     6.0001 </r>
       <r>    -3.3892     0.0065     6.0005 </r>
       <r>    -3.3248     0.0337     6.0027 </r>
       <r>    -3.2604     0.1416     6.0118 </r>
       <r>    -3.1961     0.4855     6.0430 </r>
       <r>    -3.1317     1.3580     6.1304 </r>
       <r>    -3.0674     3.0984     6.3298 </r>
       <r>    -3.0030     5.7669     6.7010 </r>
       <r>    -2.9386     8.7562     7.2645 </r>
       <r>    -2.8743    10.8461     7.9626 </r>
       <r>    -2.8099    10.9605     8.6680 </r>
       <r>    -2.7456     9.0360     9.2496 </r>
       <r>    -2.6812     6.0773     9.6407 </r>
       <r>    -2.6168     3.3345     9.8553 </r>
       <r>    -2.5525     1.4924     9.9514 </r>
       <r>    -2.4881     0.5449     9.9864 </r>
       <r>    -2.4238     0.1623     9.9969 </r>
       <r>    -2.3594     0.0394     9.9994 </r>
       <r>    -2.2950     0.0078     9.9999 </r>
       <r>    -2.2307     0.0013    10.0000 </r>
       <r>    -2.1663     0.0002    10.0000 </r>
       <r>    -2.1020     0.0000    10.0000 </r>
       <r>    -2.0376     0.0000    10.0000 </r>
       <r>    -1.9732     0.0000    10.0000 </r>
       <r>    -1.9089     0.0000    10.0000 </r>
       <r>    -1.8445     0.0000    10.0000 </r>
       <r>    -1.7802     0.0000    10.0000 </r>
       <r>    -1.7158     0.0000    10.0000 </r>
       <r>    -1.6514     0.0000    10.0000 </r>
       <r>    -1.5871     0.0000    10.0000 </r>
       <r>    -1.5227     0.0000    10.0000 </r>
       <r>    -1.4584     0.0000    10.0000 </r>
       <r>    -1.3940     0.0000    10.0000 </r>
       <r>    -1.3296     0.0000    10.0000 </r>
       <r>    -1.2653     0.0000    10.0000 </r>
       <r>    -1.2009     0.0000    10.0000 </r>
       <r>    -1.1366     0.0000    10.0000 </r>
       <r>    -1.0722     0.0000    10.0000 </r>
       <r>    -1.0078     0.0000    10.0000 </r>
       <r>    -0.9435     0.0000    10.0000 </r>
       <r>    -0.8791     0.0000    10.0000 </r>
       <r>    -0.8148     0.0000    10.0000 </r>
       <r>    -0.7504     0.0004    10.0000 </r>
       <r>    -0.6860     0.0026    10.0002 </r>
       <r>    -0.6217     0.0158    10.0012 </r>
       <r>    -0.5573     0.0766    10.0061 </r>
       <r>    -0.4930     0.3040    10.0257 </r>
       <r>    -0.4286     0.9843    10.0891 </r>
       <r>    -0.3642     2.6007    10.2564 </r>
       <r>    -0.2999     5.6084    10.6174 </r>
       <r>    -0.2355     9.8708    11.2527 </r>
       <r>    -0.1712    14.1795    12.1653 </r>
       <r>    -0.1068    16.6251    13.2353 </r>
       <r>    -0.0424    15.9103    14.2592 </r>
       <r>     0.0219    12.4298    15.0592 </r>
       <r>     0.0863     7.9379    15.5701 </r>
       <r>     0.1506     4.1941    15.8400 </r>
       <r>     0.2150     2.0234    15.9702 </r>
       <r>     0.2794     1.4504    16.0636 </r>
       <r>     0.3437     2.2987    16.2115 </r>
       <r>     0.4081     4.4174    16.4958 </r>
       <r>     0.4724     7.3753    16.9705 </r>
       <r>     0.5368    10.1914    17.6264 </r>
       <r>     0.6012    11.7451    18.3823 </r>
       <r>     0.6655    11.7092    19.1359 </r>
       <r>     0.7299    10.9558    19.8411 </r>
       <r>     0.7942    10.7347    20.5319 </r>
       <r>     0.8586    11.3664    21.2635 </r>
       <r>     0.9230    11.8978    22.0292 </r>
       <r>     0.9873    11.1163    22.7447 </r>
       <r>     1.0517     8.7691    23.3090 </r>
       <r>     1.1160     5.7116    23.6766 </r>
       <r>     1.1804     3.0472    23.8727 </r>
       <r>     1.2447     1.3280    23.9582 </r>
       <r>     1.3091     0.4723    23.9886 </r>
       <r>     1.3735     0.1370    23.9974 </r>
       <r>     1.4378     0.0324    23.9995 </r>
       <r>     1.5022     0.0063    23.9999 </r>
       <r>     1.5665     0.0010    24.0000 </r>
       <r>     1.6309     0.0001    24.0000 </r>
       <r>     1.6953     0.0000    24.0000 </r>
       <r>     1.7596     0.0000    24.0000 </r>
       <r>     1.8240     0.0000    24.0000 </r>
       <r>     1.8883     0.0000    24.0000 </r>
       <r>     1.9527     0.0000    24.0000 </r>
       <r>     2.0171     0.0000    24.0000 </r>
       <r>     2.0814     0.0000    24.0000 </r>
       <r>     2.1458     0.0000    24.0000 </r>
       <r>     2.2101     0.0000    24.0000 </r>
       <r>     2.2745     0.0000    24.0000 </r>
       <r>     2.3389     0.0000    24.0000 </r>
       <r>     2.4032     0.0000    24.0000 </r>
       <r>     2.4676     0.0000    24.0000 </r>
       <r>     2.5319     0.0000    24.0000 </r>
       <r>     2.5963     0.0000    24.0000 </r>
       <r>     2.6607     0.0000    24.0000 </r>
       <r>     2.7250     0.0000    24.0000 </r>
       <r>     2.7894     0.0000    24.0000 </r>
       <r>     2.8537     0.0000    24.0000 </r>
       <r>     2.9181     0.0000    24.0000 </r>
      </set>
     </set>
    </array>
   </total>
  </dos>
 </calculation>
 <structure name="finalpos" >
  <crystal>
   <varray name="basis" >
    <v>      15.00000000       0.00000000       0.00000000 </v>
    <v>       0.00000000      15.00000000       0.00000000 </v>
    <v>       0.00000000       0.00000000       7.20000000 </v>
   </varray>
   <i name="volume">   1620.00000000 </i>
   <varray name="rec_basis" >
    <v>       0.06666667      -0.00000000       0.00000000 </v>
    <v>       0.00000000       0.06666667       0.00000000 </v>
    <v>      -0.00000000      -0.00000000       0.13888889 </v>
   </varray>
  </crystal>
  <varray name="positions" >
   <v>       0.00000000       0.00000000       0.00000000 </v>
   <v>       0.00000000       0.00000000       0.12500000 </v>
   <v>       0.00000000       0.00000000       0.25000000 </v>
   <v>       0.00000000       0.00000000       0.37500000 </v>
   <v>       0.00000000       0.00000000       0.50000000 </v>
   <v>       0.00000000       0.00000000       0.62500000 </v>
   <v>       0.00000000       0.00000000       0.75000000 </v>
   <v>       0.00000000       0.00000000       0.87500000 </v>
  </varray>
 </structure>
</modeling>
