   8   8   0   0
  0.3600000E+03  0.1500000E-08  0.1500000E-08  0.1280000E-08  0.5000000E-15
  1.000000000000000E-004
  CAR 
 unknown system                          
      2.60769107    -11.83505006  301     -6.41688934      1.00000000
    -11.835  0.0000E+00  0.0000E+00  0.0000E+00  0.0000E+00
    -11.787  0.0000E+00  0.0000E+00  0.0000E+00  0.0000E+00
    -11.739  0.0000E+00  0.0000E+00  0.0000E+00  0.0000E+00
    -11.691  0.0000E+00  0.0000E+00  0.0000E+00  0.0000E+00
    -11.642  0.0000E+00  0.0000E+00  0.0000E+00  0.0000E+00
    -11.594  0.0000E+00  0.0000E+00  0.0000E+00  0.0000E+00
    -11.546  0.0000E+00  0.0000E+00  0.0000E+00  0.0000E+00
    -11.498  0.0000E+00  0.0000E+00  0.0000E+00  0.0000E+00
    -11.450  0.0000E+00  0.0000E+00  0.0000E+00  0.0000E+00
    -11.402  0.0000E+00  0.0000E+00  0.0000E+00  0.0000E+00
    -11.354  0.0000E+00  0.0000E+00  0.0000E+00  0.0000E+00
    -11.305  0.0000E+00  0.0000E+00  0.0000E+00  0.0000E+00
    -11.257  0.0000E+00  0.0000E+00  0.0000E+00  0.0000E+00
    -11.209  0.0000E+00  0.0000E+00  0.0000E+00  0.0000E+00
    -11.161  0.0000E+00  0.0000E+00  0.0000E+00  0.0000E+00
    -11.113  0.0000E+00  0.0000E+00  0.0000E+00  0.0000E+00
    -11.065  0.0000E+00  0.0000E+00  0.0000E+00  0.0000E+00
    -11.017  0.2306E-14  0.2306E-14  0.1110E-15  0.1110E-15
    -10.968  0.2076E-13  0.2076E-13  0.1110E-14  0.1110E-14
    -10.920  0.3229E-12  0.3229E-12  0.1665E-13  0.1665E-13
    -10.872  0.4303E-11  0.4303E-11  0.2238E-12  0.2238E-12
    -10.824  0.5110E-10  0.5110E-10  0.2684E-11  0.2684E-11
    -10.776  0.5411E-09  0.5411E-09  0.2873E-10  0.2873E-10
    -10.728  0.5106E-08  0.5106E-08  0.2746E-09  0.2746E-09
    -10.680  0.4295E-07  0.4295E-07  0.2342E-08  0.2342E-08
    -10.631  0.3221E-06  0.3221E-06  0.1785E-07  0.1785E-07
    -10.583  0.2153E-05  0.2153E-05  0.1215E-06  0.1215E-06
    -10.535  0.1283E-04  0.1283E-04  0.7390E-06  0.7390E-06
    -10.487  0.6813E-04  0.6813E-04  0.4019E-05  0.4019E-05
    -10.439  0.3226E-03  0.3226E-03  0.1955E-04  0.1955E-04
    -10.391  0.1362E-02  0.1362E-02  0.8510E-04  0.8510E-04
    -10.343  0.5123E-02  0.5123E-02  0.3317E-03  0.3317E-03
    -10.294  0.1719E-01  0.1719E-01  0.1159E-02  0.1159E-02
    -10.246  0.5140E-01  0.5140E-01  0.3634E-02  0.3634E-02
    -10.198  0.1370E+00  0.1370E+00  0.1023E-01  0.1023E-01
    -10.150  0.3258E+00  0.3258E+00  0.2592E-01  0.2592E-01
    -10.102  0.6904E+00  0.6904E+00  0.5915E-01  0.5915E-01
    -10.054  0.1304E+01  0.1304E+01  0.1219E+00  0.1219E+00
    -10.006  0.2197E+01  0.2197E+01  0.2277E+00  0.2277E+00
     -9.957  0.3300E+01  0.3300E+01  0.3866E+00  0.3866E+00
     -9.909  0.4418E+01  0.4418E+01  0.5993E+00  0.5993E+00
     -9.861  0.5275E+01  0.5275E+01  0.8533E+00  0.8533E+00
     -9.813  0.5614E+01  0.5614E+01  0.1124E+01  0.1124E+01
     -9.765  0.5328E+01  0.5328E+01  0.1380E+01  0.1380E+01
     -9.717  0.4507E+01  0.4507E+01  0.1597E+01  0.1597E+01
     -9.669  0.3400E+01  0.3400E+01  0.1761E+01  0.1761E+01
     -9.620  0.2287E+01  0.2287E+01  0.1871E+01  0.1871E+01
     -9.572  0.1372E+01  0.1372E+01  0.1937E+01  0.1937E+01
     -9.524  0.7357E+00  0.7357E+00  0.1972E+01  0.1972E+01
     -9.476  0.3601E+00  0.3601E+00  0.1990E+01  0.1990E+01
     -9.428  0.1844E+00  0.1844E+00  0.1998E+01  0.1998E+01
     -9.380  0.1634E+00  0.1634E+00  0.2006E+01  0.2006E+01
     -9.332  0.3033E+00  0.3033E+00  0.2021E+01  0.2021E+01
     -9.283  0.6785E+00  0.6785E+00  0.2054E+01  0.2054E+01
     -9.235  0.1421E+01  0.1421E+01  0.2122E+01  0.2122E+01
     -9.187  0.2670E+01  0.2670E+01  0.2251E+01  0.2251E+01
     -9.139  0.4476E+01  0.4476E+01  0.2466E+01  0.2466E+01
     -9.091  0.6692E+01  0.6692E+01  0.2788E+01  0.2788E+01
     -9.043  0.8919E+01  0.8919E+01  0.3218E+01  0.3218E+01
     -8.995  0.1060E+02  0.1060E+02  0.3728E+01  0.3728E+01
     -8.947  0.1123E+02  0.1123E+02  0.4268E+01  0.4268E+01
     -8.898  0.1061E+02  0.1061E+02  0.4779E+01  0.4779E+01
     -8.850  0.8934E+01  0.8934E+01  0.5209E+01  0.5209E+01
     -8.802  0.6708E+01  0.6708E+01  0.5532E+01  0.5532E+01
     -8.754  0.4491E+01  0.4491E+01  0.5748E+01  0.5748E+01
     -8.706  0.2680E+01  0.2680E+01  0.5877E+01  0.5877E+01
     -8.658  0.1426E+01  0.1426E+01  0.5946E+01  0.5946E+01
     -8.610  0.6766E+00  0.6766E+00  0.5979E+01  0.5979E+01
     -8.561  0.2862E+00  0.2862E+00  0.5992E+01  0.5992E+01
     -8.513  0.1079E+00  0.1079E+00  0.5998E+01  0.5998E+01
     -8.465  0.3628E-01  0.3628E-01  0.5999E+01  0.5999E+01
     -8.417  0.1087E-01  0.1087E-01  0.6000E+01  0.6000E+01
     -8.369  0.2905E-02  0.2905E-02  0.6000E+01  0.6000E+01
     -8.321  0.6920E-03  0.6920E-03  0.6000E+01  0.6000E+01
     -8.273  0.1469E-03  0.1469E-03  0.6000E+01  0.6000E+01
     -8.224  0.2781E-04  0.2781E-04  0.6000E+01  0.6000E+01
     -8.176  0.4693E-05  0.4693E-05  0.6000E+01  0.6000E+01
     -8.128  0.7059E-06  0.7059E-06  0.6000E+01  0.6000E+01
     -8.080  0.9466E-07  0.9466E-07  0.6000E+01  0.6000E+01
     -8.032  0.1131E-07  0.1131E-07  0.6000E+01  0.6000E+01
     -7.984  0.1205E-08  0.1205E-08  0.6000E+01  0.6000E+01
     -7.936  0.1145E-09  0.1145E-09  0.6000E+01  0.6000E+01
     -7.887  0.9690E-11  0.9690E-11  0.6000E+01  0.6000E+01
     -7.839  0.7287E-12  0.7287E-12  0.6000E+01  0.6000E+01
     -7.791  0.5535E-13  0.5535E-13  0.6000E+01  0.6000E+01
     -7.743  0.0000E+00  0.0000E+00  0.6000E+01  0.6000E+01
     -7.695  0.0000E+00  0.0000E+00  0.6000E+01  0.6000E+01
     -7.647  0.0000E+00  0.0000E+00  0.6000E+01  0.6000E+01
     -7.599  0.4612E-14  0.4612E-14  0.6000E+01  0.6000E+01
     -7.550  0.4151E-13  0.4151E-13  0.6000E+01  0.6000E+01
     -7.502  0.6434E-12  0.6434E-12  0.6000E+01  0.6000E+01
     -7.454  0.8586E-11  0.8586E-11  0.6000E+01  0.6000E+01
     -7.406  0.1020E-09  0.1020E-09  0.6000E+01  0.6000E+01
     -7.358  0.1080E-08  0.1080E-08  0.6000E+01  0.6000E+01
     -7.310  0.1019E-07  0.1019E-07  0.6000E+01  0.6000E+01
     -7.262  0.8574E-07  0.8574E-07  0.6000E+01  0.6000E+01
     -7.213  0.6429E-06  0.6429E-06  0.6000E+01  0.6000E+01
     -7.165  0.4298E-05  0.4298E-05  0.6000E+01  0.6000E+01
     -7.117  0.2561E-04  0.2561E-04  0.6000E+01  0.6000E+01
     -7.069  0.1360E-03  0.1360E-03  0.6000E+01  0.6000E+01
     -7.021  0.6442E-03  0.6442E-03  0.6000E+01  0.6000E+01
     -6.973  0.2720E-02  0.2720E-02  0.6000E+01  0.6000E+01
     -6.925  0.1023E-01  0.1023E-01  0.6001E+01  0.6001E+01
     -6.876  0.3434E-01  0.3434E-01  0.6002E+01  0.6002E+01
     -6.828  0.1027E+00  0.1027E+00  0.6007E+01  0.6007E+01
     -6.780  0.2739E+00  0.2739E+00  0.6020E+01  0.6020E+01
     -6.732  0.6510E+00  0.6510E+00  0.6052E+01  0.6052E+01
     -6.684  0.1380E+01  0.1380E+01  0.6118E+01  0.6118E+01
     -6.636  0.2607E+01  0.2607E+01  0.6244E+01  0.6244E+01
     -6.588  0.4393E+01  0.4393E+01  0.6455E+01  0.6455E+01
     -6.539  0.6598E+01  0.6598E+01  0.6773E+01  0.6773E+01
     -6.491  0.8835E+01  0.8835E+01  0.7198E+01  0.7198E+01
     -6.443  0.1055E+02  0.1055E+02  0.7706E+01  0.7706E+01
     -6.395  0.1123E+02  0.1123E+02  0.8247E+01  0.8247E+01
     -6.347  0.1066E+02  0.1066E+02  0.8760E+01  0.8760E+01
     -6.299  0.9017E+01  0.9017E+01  0.9194E+01  0.9194E+01
     -6.251  0.6802E+01  0.6802E+01  0.9521E+01  0.9521E+01
     -6.202  0.4575E+01  0.4575E+01  0.9741E+01  0.9741E+01
     -6.154  0.2743E+01  0.2743E+01  0.9873E+01  0.9873E+01
     -6.106  0.1467E+01  0.1467E+01  0.9944E+01  0.9944E+01
     -6.058  0.6991E+00  0.6991E+00  0.9978E+01  0.9978E+01
     -6.010  0.2971E+00  0.2971E+00  0.9992E+01  0.9992E+01
     -5.962  0.1125E+00  0.1125E+00  0.9997E+01  0.9997E+01
     -5.914  0.3801E-01  0.3801E-01  0.9999E+01  0.9999E+01
     -5.865  0.1145E-01  0.1145E-01  0.1000E+02  0.1000E+02
     -5.817  0.3073E-02  0.3073E-02  0.1000E+02  0.1000E+02
     -5.769  0.7353E-03  0.7353E-03  0.1000E+02  0.1000E+02
     -5.721  0.1569E-03  0.1569E-03  0.1000E+02  0.1000E+02
     -5.673  0.2983E-04  0.2983E-04  0.1000E+02  0.1000E+02
     -5.625  0.5058E-05  0.5058E-05  0.1000E+02  0.1000E+02
     -5.577  0.7644E-06  0.7644E-06  0.1000E+02  0.1000E+02
     -5.528  0.1030E-06  0.1030E-06  0.1000E+02  0.1000E+02
     -5.480  0.1237E-07  0.1237E-07  0.1000E+02  0.1000E+02
     -5.432  0.1324E-08  0.1324E-08  0.1000E+02  0.1000E+02
     -5.384  0.1263E-09  0.1263E-09  0.1000E+02  0.1000E+02
     -5.336  0.1075E-10  0.1075E-10  0.1000E+02  0.1000E+02
     -5.288  0.8118E-12  0.8118E-12  0.1000E+02  0.1000E+02
     -5.240  0.5535E-13  0.5535E-13  0.1000E+02  0.1000E+02
     -5.191  0.0000E+00  0.0000E+00  0.1000E+02  0.1000E+02
     -5.143  0.0000E+00  0.0000E+00  0.1000E+02  0.1000E+02
     -5.095  0.0000E+00  0.0000E+00  0.1000E+02  0.1000E+02
     -5.047  0.0000E+00  0.0000E+00  0.1000E+02  0.1000E+02
     -4.999  0.0000E+00  0.0000E+00  0.1000E+02  0.1000E+02
     -4.951  0.0000E+00  0.0000E+00  0.1000E+02  0.1000E+02
     -4.903  0.0000E+00  0.0000E+00  0.1000E+02  0.1000E+02
     -4.854  0.0000E+00  0.0000E+00  0.1000E+02  0.1000E+02
     -4.806  0.0000E+00  0.0000E+00  0.1000E+02  0.1000E+02
     -4.758  0.0000E+00  0.0000E+00  0.1000E+02  0.1000E+02
     -4.710  0.0000E+00  0.0000E+00  0.1000E+02  0.1000E+02
     -4.662  0.0000E+00  0.0000E+00  0.1000E+02  0.1000E+02
     -4.614  0.0000E+00  0.0000E+00  0.1000E+02  0.1000E+02
     -4.566  0.0000E+00  0.0000E+00  0.1000E+02  0.1000E+02
     -4.517  0.0000E+00  0.0000E+00  0.1000E+02  0.1000E+02
     -4.469  0.0000E+00  0.0000E+00  0.1000E+02  0.1000E+02
     -4.421  0.0000E+00  0.0000E+00  0.1000E+02  0.1000E+02
     -4.373  0.0000E+00  0.0000E+00  0.1000E+02  0.1000E+02
     -4.325  0.0000E+00  0.0000E+00  0.1000E+02  0.1000E+02
     -4.277  0.0000E+00  0.0000E+00  0.1000E+02  0.1000E+02
     -4.229  0.0000E+00  0.0000E+00  0.1000E+02  0.1000E+02
     -4.180  0.0000E+00  0.0000E+00  0.1000E+02  0.1000E+02
     -4.132  0.0000E+00  0.0000E+00  0.1000E+02  0.1000E+02
     -4.084  0.0000E+00  0.0000E+00  0.1000E+02  0.1000E+02
     -4.036  0.0000E+00  0.0000E+00  0.1000E+02  0.1000E+02
     -3.988  0.0000E+00  0.0000E+00  0.1000E+02  0.1000E+02
     -3.940  0.0000E+00  0.0000E+00  0.1000E+02  0.1000E+02
     -3.892  0.0000E+00  0.0000E+00  0.1000E+02  0.1000E+02
     -3.843  0.0000E+00  0.0000E+00  0.1000E+02  0.1000E+02
     -3.795  0.0000E+00  0.0000E+00  0.1000E+02  0.1000E+02
     -3.747  0.0000E+00  0.0000E+00  0.1000E+02  0.1000E+02
     -3.699  0.0000E+00  0.0000E+00  0.1000E+02  0.1000E+02
     -3.651  0.0000E+00  0.0000E+00  0.1000E+02  0.1000E+02
     -3.603  0.1384E-13  0.1384E-13  0.1000E+02  0.1000E+02
     -3.555  0.1983E-12  0.1983E-12  0.1000E+02  0.1000E+02
     -3.506  0.2758E-11  0.2758E-11  0.1000E+02  0.1000E+02
     -3.458  0.3449E-10  0.3449E-10  0.1000E+02  0.1000E+02
     -3.410  0.3843E-09  0.3843E-09  0.1000E+02  0.1000E+02
     -3.362  0.3817E-08  0.3817E-08  0.1000E+02  0.1000E+02
     -3.314  0.3380E-07  0.3380E-07  0.1000E+02  0.1000E+02
     -3.266  0.2667E-06  0.2667E-06  0.1000E+02  0.1000E+02
     -3.218  0.1876E-05  0.1876E-05  0.1000E+02  0.1000E+02
     -3.169  0.1176E-04  0.1176E-04  0.1000E+02  0.1000E+02
     -3.121  0.6576E-04  0.6577E-04  0.1000E+02  0.1000E+02
     -3.073  0.3277E-03  0.3277E-03  0.1000E+02  0.1000E+02
     -3.025  0.1456E-02  0.1456E-02  0.1000E+02  0.1000E+02
     -2.977  0.5765E-02  0.5765E-02  0.1000E+02  0.1000E+02
     -2.929  0.2035E-01  0.2035E-01  0.1000E+02  0.1000E+02
     -2.881  0.6406E-01  0.6406E-01  0.1000E+02  0.1000E+02
     -2.832  0.1797E+00  0.1797E+00  0.1001E+02  0.1001E+02
     -2.784  0.4496E+00  0.4496E+00  0.1003E+02  0.1003E+02
     -2.736  0.1003E+01  0.1003E+01  0.1008E+02  0.1008E+02
     -2.688  0.1994E+01  0.1994E+01  0.1018E+02  0.1018E+02
     -2.640  0.3535E+01  0.3535E+01  0.1035E+02  0.1035E+02
     -2.592  0.5587E+01  0.5587E+01  0.1062E+02  0.1062E+02
     -2.544  0.7872E+01  0.7872E+01  0.1100E+02  0.1100E+02
     -2.495  0.9890E+01  0.9890E+01  0.1147E+02  0.1147E+02
     -2.447  0.1108E+02  0.1108E+02  0.1201E+02  0.1201E+02
     -2.399  0.1106E+02  0.1106E+02  0.1254E+02  0.1254E+02
     -2.351  0.9849E+01  0.9849E+01  0.1301E+02  0.1301E+02
     -2.303  0.7818E+01  0.7818E+01  0.1339E+02  0.1339E+02
     -2.255  0.5533E+01  0.5533E+01  0.1366E+02  0.1366E+02
     -2.207  0.3491E+01  0.3491E+01  0.1382E+02  0.1382E+02
     -2.158  0.1964E+01  0.1964E+01  0.1392E+02  0.1392E+02
     -2.110  0.9851E+00  0.9851E+00  0.1397E+02  0.1397E+02
     -2.062  0.4405E+00  0.4405E+00  0.1399E+02  0.1399E+02
     -2.014  0.1756E+00  0.1756E+00  0.1400E+02  0.1400E+02
     -1.966  0.6241E-01  0.6241E-01  0.1400E+02  0.1400E+02
     -1.918  0.1978E-01  0.1978E-01  0.1400E+02  0.1400E+02
     -1.870  0.5586E-02  0.5586E-02  0.1400E+02  0.1400E+02
     -1.821  0.1407E-02  0.1407E-02  0.1400E+02  0.1400E+02
     -1.773  0.3158E-03  0.3158E-03  0.1400E+02  0.1400E+02
     -1.725  0.6320E-04  0.6320E-04  0.1400E+02  0.1400E+02
     -1.677  0.1128E-04  0.1128E-04  0.1400E+02  0.1400E+02
     -1.629  0.1793E-05  0.1793E-05  0.1400E+02  0.1400E+02
     -1.581  0.2542E-06  0.2542E-06  0.1400E+02  0.1400E+02
     -1.533  0.3213E-07  0.3213E-07  0.1400E+02  0.1400E+02
     -1.484  0.3619E-08  0.3619E-08  0.1400E+02  0.1400E+02
     -1.436  0.3633E-09  0.3633E-09  0.1400E+02  0.1400E+02
     -1.388  0.3253E-10  0.3253E-10  0.1400E+02  0.1400E+02
     -1.340  0.2587E-11  0.2587E-11  0.1400E+02  0.1400E+02
     -1.292  0.2375E-12  0.2375E-12  0.1400E+02  0.1400E+02
     -1.244  0.8348E-12  0.8302E-12  0.1400E+02  0.1400E+02
     -1.196  0.1082E-10  0.1081E-10  0.1400E+02  0.1400E+02
     -1.147  0.1282E-09  0.1280E-09  0.1400E+02  0.1400E+02
     -1.099  0.1354E-08  0.1352E-08  0.1400E+02  0.1400E+02
     -1.051  0.1275E-07  0.1274E-07  0.1400E+02  0.1400E+02
     -1.003  0.1071E-06  0.1070E-06  0.1400E+02  0.1400E+02
     -0.955  0.8029E-06  0.8022E-06  0.1400E+02  0.1400E+02
     -0.907  0.5367E-05  0.5364E-05  0.1400E+02  0.1400E+02
     -0.859  0.3201E-04  0.3200E-04  0.1400E+02  0.1400E+02
     -0.810  0.1704E-03  0.1703E-03  0.1400E+02  0.1400E+02
     -0.762  0.8089E-03  0.8088E-03  0.1400E+02  0.1400E+02
     -0.714  0.3428E-02  0.3428E-02  0.1400E+02  0.1400E+02
     -0.666  0.1296E-01  0.1297E-01  0.1400E+02  0.1400E+02
     -0.618  0.4376E-01  0.4377E-01  0.1400E+02  0.1400E+02
     -0.570  0.1319E+00  0.1319E+00  0.1401E+02  0.1401E+02
     -0.522  0.3547E+00  0.3549E+00  0.1403E+02  0.1403E+02
     -0.473  0.8520E+00  0.8526E+00  0.1407E+02  0.1407E+02
     -0.425  0.1827E+01  0.1829E+01  0.1416E+02  0.1416E+02
     -0.377  0.3500E+01  0.3503E+01  0.1432E+02  0.1432E+02
     -0.329  0.5989E+01  0.5993E+01  0.1461E+02  0.1461E+02
     -0.281  0.9152E+01  0.9159E+01  0.1505E+02  0.1505E+02
     -0.233  0.1250E+02  0.1250E+02  0.1565E+02  0.1566E+02
     -0.185  0.1524E+02  0.1525E+02  0.1639E+02  0.1639E+02
     -0.136  0.1661E+02  0.1662E+02  0.1719E+02  0.1719E+02
     -0.088  0.1618E+02  0.1618E+02  0.1797E+02  0.1797E+02
     -0.040  0.1408E+02  0.1408E+02  0.1864E+02  0.1865E+02
      0.008  0.1095E+02  0.1095E+02  0.1917E+02  0.1917E+02
      0.056  0.7618E+01  0.7611E+01  0.1954E+02  0.1954E+02
      0.104  0.4745E+01  0.4738E+01  0.1977E+02  0.1977E+02
      0.152  0.2671E+01  0.2667E+01  0.1990E+02  0.1990E+02
      0.201  0.1430E+01  0.1429E+01  0.1996E+02  0.1996E+02
      0.249  0.9054E+00  0.9077E+00  0.2001E+02  0.2001E+02
      0.297  0.9882E+00  0.9956E+00  0.2006E+02  0.2006E+02
      0.345  0.1653E+01  0.1667E+01  0.2014E+02  0.2014E+02
      0.393  0.2930E+01  0.2952E+01  0.2028E+02  0.2028E+02
      0.441  0.4793E+01  0.4822E+01  0.2051E+02  0.2051E+02
      0.489  0.7033E+01  0.7064E+01  0.2085E+02  0.2085E+02
      0.538  0.9212E+01  0.9238E+01  0.2129E+02  0.2130E+02
      0.586  0.1076E+02  0.1077E+02  0.2181E+02  0.2181E+02
      0.634  0.1121E+02  0.1121E+02  0.2235E+02  0.2235E+02
      0.682  0.1041E+02  0.1039E+02  0.2285E+02  0.2285E+02
      0.730  0.8624E+01  0.8595E+01  0.2326E+02  0.2327E+02
      0.778  0.6369E+01  0.6338E+01  0.2357E+02  0.2357E+02
      0.826  0.4194E+01  0.4168E+01  0.2377E+02  0.2377E+02
      0.875  0.2463E+01  0.2444E+01  0.2389E+02  0.2389E+02
      0.923  0.1289E+01  0.1278E+01  0.2395E+02  0.2395E+02
      0.971  0.6020E+00  0.5958E+00  0.2398E+02  0.2398E+02
      1.019  0.2506E+00  0.2477E+00  0.2399E+02  0.2399E+02
      1.067  0.9302E-01  0.9182E-01  0.2400E+02  0.2400E+02
      1.115  0.3079E-01  0.3035E-01  0.2400E+02  0.2400E+02
      1.163  0.9084E-02  0.8945E-02  0.2400E+02  0.2400E+02
      1.212  0.2390E-02  0.2350E-02  0.2400E+02  0.2400E+02
      1.260  0.5607E-03  0.5507E-03  0.2400E+02  0.2400E+02
      1.308  0.1173E-03  0.1150E-03  0.2400E+02  0.2400E+02
      1.356  0.2187E-04  0.2143E-04  0.2400E+02  0.2400E+02
      1.404  0.3635E-05  0.3558E-05  0.2400E+02  0.2400E+02
      1.452  0.5388E-06  0.5268E-06  0.2400E+02  0.2400E+02
      1.500  0.7120E-07  0.6954E-07  0.2400E+02  0.2400E+02
      1.549  0.8387E-08  0.8183E-08  0.2400E+02  0.2400E+02
      1.597  0.8808E-09  0.8585E-09  0.2400E+02  0.2400E+02
      1.645  0.8246E-10  0.8029E-10  0.2400E+02  0.2400E+02
      1.693  0.6881E-11  0.6692E-11  0.2400E+02  0.2400E+02
      1.741  0.5120E-12  0.5027E-12  0.2400E+02  0.2400E+02
      1.789  0.3690E-13  0.3229E-13  0.2400E+02  0.2400E+02
      1.837  0.0000E+00  0.0000E+00  0.2400E+02  0.2400E+02
      1.886  0.0000E+00  0.0000E+00  0.2400E+02  0.2400E+02
      1.934  0.0000E+00  0.0000E+00  0.2400E+02  0.2400E+02
      1.982  0.0000E+00  0.0000E+00  0.2400E+02  0.2400E+02
      2.030  0.0000E+00  0.0000E+00  0.2400E+02  0.2400E+02
      2.078  0.0000E+00  0.0000E+00  0.2400E+02  0.2400E+02
      2.126  0.0000E+00  0.0000E+00  0.2400E+02  0.2400E+02
      2.174  0.0000E+00  0.0000E+00  0.2400E+02  0.2400E+02
      2.223  0.0000E+00  0.0000E+00  0.2400E+02  0.2400E+02
      2.271  0.0000E+00  0.0000E+00  0.2400E+02  0.2400E+02
      2.319  0.0000E+00  0.0000E+00  0.2400E+02  0.2400E+02
      2.367  0.0000E+00  0.0000E+00  0.2400E+02  0.2400E+02
      2.415  0.0000E+00  0.0000E+00  0.2400E+02  0.2400E+02
      2.463  0.0000E+00  0.0000E+00  0.2400E+02  0.2400E+02
      2.511  0.0000E+00  0.0000E+00  0.2400E+02  0.2400E+02
      2.560  0.0000E+00  0.0000E+00  0.2400E+02  0.2400E+02
      2.608  0.0000E+00  0.0000E+00  0.2400E+02  0.2400E+02
