    8    8    1    2
  0.3600000E+03  0.1500000E-08  0.1500000E-08  0.1280000E-08  0.5000000E-15
  1.000000000000000E-004
  CAR 
 unknown system                          
      8      1     12
 
  0.0000000E+00  0.0000000E+00  0.0000000E+00  0.1000000E+01
    1       -9.835050     -9.835050   1.000000   1.000000
    2       -8.970404     -8.970404   1.000000   1.000000
    3       -8.970402     -8.970402   1.000000   1.000000
    4       -6.416901     -6.416901   0.500032   0.500032
    5       -6.416878     -6.416878   0.499968   0.499968
    6       -2.447843     -2.447843   0.000000   0.000000
    7       -2.447843     -2.447843   0.000000   0.000000
    8       -0.161837     -0.161778   0.000000   0.000000
    9       -0.161837     -0.161777   0.000000   0.000000
   10       -0.119131     -0.119546   0.000000   0.000000
   11        0.598007      0.596921   0.000000   0.000000
   12        0.607691      0.607499   0.000000   0.000000
