       N       E                     dE             d eps       ncg     rms          rms(c)
DAV:   1     0.562411732560E+01    0.56241E+01   -0.93909E+02    56   0.174E+02
DAV:   2    -0.139681965493E+02   -0.19592E+02   -0.19566E+02    84   0.539E+01
DAV:   3    -0.152052465345E+02   -0.12370E+01   -0.10555E+01    72   0.149E+01
DAV:   4    -0.152640494576E+02   -0.58803E-01   -0.52690E-01    64   0.224E+00
DAV:   5    -0.152641905951E+02   -0.14114E-03   -0.14097E-03    72   0.111E-01    0.139E+00
DAV:   6    -0.152836945505E+02   -0.19504E-01   -0.81416E-03    64   0.501E-01    0.878E-01
DAV:   7    -0.152966768702E+02   -0.12982E-01   -0.27596E-02    56   0.901E-01    0.919E-02
DAV:   8    -0.152991310487E+02   -0.24542E-02   -0.80526E-04    64   0.136E-01    0.238E-02
DAV:   9    -0.152995571739E+02   -0.42613E-03   -0.14700E-04    56   0.486E-02    0.168E-02
DAV:  10    -0.153002769967E+02   -0.71982E-03   -0.96407E-05    48   0.392E-02    0.102E-02
DAV:  11    -0.153002192018E+02    0.57795E-04   -0.11040E-04    52   0.378E-02    0.613E-03
DAV:  12    -0.153009508116E+02   -0.73161E-03   -0.51449E-05    52   0.250E-02    0.340E-03
DAV:  13    -0.153013369838E+02   -0.38617E-03   -0.31178E-05    48   0.201E-02    0.252E-03
DAV:  14    -0.153015570150E+02   -0.22003E-03   -0.12549E-05    48   0.133E-02    0.150E-03
DAV:  15    -0.153016453321E+02   -0.88317E-04   -0.28195E-06    48   0.655E-03    0.566E-04
DAV:  16    -0.153016662645E+02   -0.20932E-04   -0.21682E-07    48   0.219E-03    0.435E-04
DAV:  17    -0.153016851843E+02   -0.18920E-04   -0.40054E-07    48   0.262E-03    0.114E-04
DAV:  18    -0.153016864092E+02   -0.12249E-05   -0.13595E-08    48   0.598E-04    0.689E-05
DAV:  19    -0.153016876945E+02   -0.12853E-05   -0.50077E-09    48   0.377E-04    0.339E-05
DAV:  20    -0.153016890077E+02   -0.13132E-05   -0.94936E-09    48   0.593E-04    0.195E-05
DAV:  21    -0.153016891574E+02   -0.14969E-06   -0.52855E-10    60   0.150E-04
   1 F= -.15301689E+02 E0= -.15188851E+02  d E =-.225676E+00  mag=    -0.0000
