<?xml version="1.0" encoding="ISO-8859-1"?>
<modeling>
 <generator>
  <i name="program" type="string">vasp </i>
  <i name="version" type="string">5.4.4.18Apr17-6-g9f103f2a35  </i>
  <i name="subversion" type="string">(build Aug 24 2024 05:40:03) complex            parallel </i>
  <i name="platform" type="string">IFC22_IMPI </i>
  <i name="date" type="string">2024 11 22 </i>
  <i name="time" type="string">21:41:44 </i>
 </generator>
 <incar>
  <i type="string" name="PREC">normal</i>
  <i type="int" name="ISPIN">     2</i>
  <i type="int" name="ICHARG">     2</i>
  <i type="int" name="NELM">   100</i>
  <i name="EDIFF">      0.00000100</i>
  <i type="int" name="NSW">     0</i>
  <i name="ENCUT">    300.00000000</i>
  <i name="NUPDOWN">      0.00000000</i>
  <i type="int" name="ISMEAR">     0</i>
  <i name="SIGMA">      0.20000000</i>
  <i type="logical" name="LWAVE"> F  </i>
  <i type="logical" name="LCHARG"> F  </i>
  <v type="int" name="KPOINT_BSE">    -1     0     0     0</v>
  <i type="int" name="NELM">   100</i>
 </incar>
 <structure name="primitive_cell" >
  <crystal>
   <varray name="basis" >
    <v>      15.00000000       0.00000000       0.00000000 </v>
    <v>       0.00000000      15.00000000       0.00000000 </v>
    <v>       0.00000000       0.00000000       1.60000000 </v>
   </varray>
   <i name="volume">    360.00000000 </i>
   <varray name="rec_basis" >
    <v>       0.06666667      -0.00000000       0.00000000 </v>
    <v>       0.00000000       0.06666667       0.00000000 </v>
    <v>      -0.00000000      -0.00000000       0.62500000 </v>
   </varray>
  </crystal>
  <varray name="positions" >
   <v>       0.00000000       0.00000000       0.00000000 </v>
  </varray>
 </structure>
 <varray name="primitive_index" >
  <v type="int" >        1 </v>
 </varray>
 <kpoints>
  <generation param="Gamma">
   <v type="int" name="divisions">       1        1        1 </v>
   <v name="usershift">      0.00000000       0.00000000       0.00000000 </v>
   <v name="genvec1">      1.00000000      -0.00000000       0.00000000 </v>
   <v name="genvec2">      0.00000000       1.00000000       0.00000000 </v>
   <v name="genvec3">     -0.00000000      -0.00000000       1.00000000 </v>
   <v name="shift">      0.00000000       0.00000000       0.00000000 </v>
  </generation>
  <varray name="kpointlist" >
   <v>       0.00000000       0.00000000       0.00000000 </v>
  </varray>
  <varray name="weights" >
   <v>       1.00000000 </v>
  </varray>
 </kpoints>
 <parameters>
  <separator name="general" >
   <i type="string" name="SYSTEM">unknown system</i>
   <i type="logical" name="LCOMPAT"> F  </i>
  </separator>
  <separator name="electronic" >
   <i type="string" name="PREC">normal</i>
   <i name="ENMAX">    300.00000000</i>
   <i name="ENAUG">    400.00000000</i>
   <i name="EDIFF">      0.00000100</i>
   <i type="int" name="IALGO">    38</i>
   <i type="int" name="IWAVPR">    10</i>
   <i type="int" name="NBANDS">    12</i>
   <i name="NELECT">      8.00000000</i>
   <i type="int" name="TURBO">     0</i>
   <i type="int" name="IRESTART">     0</i>
   <i type="int" name="NREBOOT">     0</i>
   <i type="int" name="NMIN">     0</i>
   <i name="EREF">      0.00000000</i>
   <separator name="electronic smearing" >
    <i type="int" name="ISMEAR">     0</i>
    <i name="SIGMA">      0.20000000</i>
    <i name="KSPACING">      0.50000000</i>
    <i type="logical" name="KGAMMA"> T  </i>
   </separator>
   <separator name="electronic projectors" >
    <i type="logical" name="LREAL"> F  </i>
    <v name="ROPT">      0.00000000</v>
    <i type="int" name="LMAXPAW">  -100</i>
    <i type="int" name="LMAXMIX">     2</i>
    <i type="logical" name="NLSPLINE"> F  </i>
   </separator>
   <separator name="electronic startup" >
    <i type="int" name="ISTART">     0</i>
    <i type="int" name="ICHARG">     2</i>
    <i type="int" name="INIWAV">     1</i>
   </separator>
   <separator name="electronic spin" >
    <i type="int" name="ISPIN">     2</i>
    <i type="logical" name="LNONCOLLINEAR"> F  </i>
    <v name="MAGMOM">      0.00000000      0.00000000      0.00000000      0.00000000      0.00000000      0.00000000      0.00000000      0.00000000</v>
    <i name="NUPDOWN">      0.00000000</i>
    <i type="logical" name="LSORBIT"> F  </i>
    <v name="SAXIS">      0.00000000      0.00000000      1.00000000</v>
    <i type="logical" name="LSPIRAL"> F  </i>
    <v name="QSPIRAL">      0.00000000      0.00000000      0.00000000</v>
    <i type="logical" name="LZEROZ"> F  </i>
   </separator>
   <separator name="electronic exchange-correlation" >
    <i type="logical" name="LASPH"> F  </i>
    <i type="logical" name="LMETAGGA"> F  </i>
   </separator>
   <separator name="electronic convergence" >
    <i type="int" name="NELM">   100</i>
    <i type="int" name="NELMDL">    -5</i>
    <i type="int" name="NELMIN">     2</i>
    <i name="ENINI">    300.00000000</i>
    <separator name="electronic convergence detail" >
     <i type="logical" name="LDIAG"> T  </i>
     <i type="logical" name="LSUBROT"> F  </i>
     <i name="WEIMIN">      0.00000000</i>
     <i name="EBREAK">      0.00000002</i>
     <i name="DEPER">      0.30000000</i>
     <i type="int" name="NRMM">     4</i>
     <i name="TIME">      0.40000000</i>
    </separator>
   </separator>
   <separator name="electronic mixer" >
    <i name="AMIX">      0.40000000</i>
    <i name="BMIX">      1.00000000</i>
    <i name="AMIN">      0.10000000</i>
    <i name="AMIX_MAG">      1.60000000</i>
    <i name="BMIX_MAG">      1.00000000</i>
    <separator name="electronic mixer details" >
     <i type="int" name="IMIX">     4</i>
     <i type="logical" name="MIXFIRST"> F  </i>
     <i type="int" name="MAXMIX">   -45</i>
     <i name="WC">    100.00000000</i>
     <i type="int" name="INIMIX">     1</i>
     <i type="int" name="MIXPRE">     1</i>
     <i type="int" name="MREMOVE">     5</i>
    </separator>
   </separator>
   <separator name="electronic dipolcorrection" >
    <i type="logical" name="LDIPOL"> F  </i>
    <i type="logical" name="LMONO"> F  </i>
    <i type="int" name="IDIPOL">     0</i>
    <i name="EPSILON">      1.00000000</i>
    <v name="DIPOL">   -100.00000000   -100.00000000   -100.00000000</v>
    <i name="EFIELD">      0.00000000</i>
   </separator>
  </separator>
  <separator name="grids" >
   <i type="int" name="NGX">    64</i>
   <i type="int" name="NGY">    64</i>
   <i type="int" name="NGZ">    54</i>
   <i type="int" name="NGXF">   128</i>
   <i type="int" name="NGYF">   128</i>
   <i type="int" name="NGZF">   108</i>
   <i type="logical" name="ADDGRID"> F  </i>
  </separator>
  <separator name="ionic" >
   <i type="int" name="NSW">     0</i>
   <i type="int" name="IBRION">    -1</i>
   <i type="int" name="MDALGO">     0</i>
   <i type="int" name="ISIF">     2</i>
   <i name="PSTRESS">      0.00000000</i>
   <i name="EDIFFG">      0.00001000</i>
   <i type="int" name="NFREE">     0</i>
   <i name="POTIM">      0.50000000</i>
   <i name="SMASS">     -3.00000000</i>
   <i name="SCALEE">      1.00000000</i>
  </separator>
  <separator name="ionic md" >
   <i name="TEBEG">      0.00010000</i>
   <i name="TEEND">      0.00010000</i>
   <i type="int" name="NBLOCK">     1</i>
   <i type="int" name="KBLOCK">     1</i>
   <i type="int" name="NPACO">   256</i>
   <i name="APACO">     16.00000000</i>
  </separator>
  <separator name="symmetry" >
   <i type="int" name="ISYM">     2</i>
   <i name="SYMPREC">      0.00001000</i>
  </separator>
  <separator name="dos" >
   <i type="int" name="LORBIT">     0</i>
   <v name="RWIGS">     -1.00000000</v>
   <i type="int" name="NEDOS">   301</i>
   <i name="EMIN">     10.00000000</i>
   <i name="EMAX">    -10.00000000</i>
   <i name="EFERMI">      0.00000000</i>
  </separator>
  <separator name="writing" >
   <i type="int" name="NWRITE">     2</i>
   <i type="logical" name="LWAVE"> F  </i>
   <i type="logical" name="LDOWNSAMPLE"> F  </i>
   <i type="logical" name="LCHARG"> F  </i>
   <i type="logical" name="LPARD"> F  </i>
   <i type="logical" name="LVTOT"> F  </i>
   <i type="logical" name="LVHAR"> F  </i>
   <i type="logical" name="LELF"> F  </i>
   <i type="logical" name="LOPTICS"> F  </i>
   <v name="STM">      0.00000000      0.00000000      0.00000000      0.00000000      0.00000000      0.00000000      0.00000000</v>
  </separator>
  <separator name="performance" >
   <i type="int" name="NPAR">     4</i>
   <i type="int" name="NSIM">     4</i>
   <i type="int" name="NBLK">    -1</i>
   <i type="logical" name="LPLANE"> T  </i>
   <i type="logical" name="LSCALAPACK"> T  </i>
   <i type="logical" name="LSCAAWARE"> F  </i>
   <i type="logical" name="LSCALU"> F  </i>
   <i type="logical" name="LASYNC"> F  </i>
   <i type="logical" name="LORBITALREAL"> F  </i>
  </separator>
  <separator name="miscellaneous" >
   <i type="int" name="IDIOT">     3</i>
   <i type="int" name="ISPECIAL">     0</i>
   <i type="logical" name="LMUSIC"> F  </i>
   <v name="POMASS">      1.00000000</v>
   <v name="DARWINR">      0.00000000</v>
   <v name="DARWINV">      1.00000000</v>
   <i type="logical" name="LCORR"> T  </i>
  </separator>
  <i type="logical" name="GGA_COMPAT"> T  </i>
  <i type="logical" name="LBERRY"> F  </i>
  <i type="int" name="ICORELEVEL">     0</i>
  <i type="logical" name="LDAU"> F  </i>
  <i type="int" name="I_CONSTRAINED_M">     0</i>
  <separator name="electronic exchange-correlation" >
   <i type="string" name="GGA">--</i>
   <i type="int" name="VOSKOWN">     0</i>
   <i type="logical" name="LHFCALC"> F  </i>
   <i type="string" name="PRECFOCK"></i>
   <i type="logical" name="LSYMGRAD"> F  </i>
   <i type="logical" name="LHFONE"> F  </i>
   <i type="logical" name="LRHFCALC"> F  </i>
   <i type="logical" name="LTHOMAS"> F  </i>
   <i type="logical" name="LMODELHF"> F  </i>
   <i name="ENCUT4O">     -1.00000000</i>
   <i type="int" name="EXXOEP">     0</i>
   <i type="int" name="FOURORBIT">     0</i>
   <i name="AEXX">      0.00000000</i>
   <i name="HFALPHA">      0.00000000</i>
   <i name="MCALPHA">      0.00000000</i>
   <i name="ALDAX">      1.00000000</i>
   <i name="AGGAX">      1.00000000</i>
   <i name="ALDAC">      1.00000000</i>
   <i name="AGGAC">      1.00000000</i>
   <i type="int" name="NKREDX">     1</i>
   <i type="int" name="NKREDY">     1</i>
   <i type="int" name="NKREDZ">     1</i>
   <i type="logical" name="SHIFTRED"> F  </i>
   <i type="logical" name="ODDONLY"> F  </i>
   <i type="logical" name="EVENONLY"> F  </i>
   <i type="int" name="LMAXFOCK">     0</i>
   <i type="int" name="NMAXFOCKAE">     0</i>
   <i type="logical" name="LFOCKAEDFT"> F  </i>
   <i name="HFSCREEN">      0.00000000</i>
   <i name="HFSCREENC">      0.00000000</i>
   <i type="int" name="NBANDSGWLOW">     0</i>
  </separator>
  <separator name="vdW DFT" >
   <i type="logical" name="LUSE_VDW"> F  </i>
   <i name="Zab_VDW">     -0.84910000</i>
   <i name="PARAM1">      0.12340000</i>
   <i name="PARAM2">      1.00000000</i>
   <i name="PARAM3">      0.00000000</i>
  </separator>
  <separator name="model GW" >
   <i type="int" name="MODEL_GW">     0</i>
   <i name="MODEL_EPS0">    216.00000000</i>
   <i name="MODEL_ALPHA">      1.00000000</i>
  </separator>
  <separator name="linear response parameters" >
   <i type="logical" name="LEPSILON"> F  </i>
   <i type="logical" name="LRPA"> F  </i>
   <i type="logical" name="LNABLA"> F  </i>
   <i type="logical" name="LVEL"> F  </i>
   <i type="int" name="KINTER">     0</i>
   <i name="CSHIFT">      0.10000000</i>
   <i name="OMEGAMAX">     -1.00000000</i>
   <i name="DEG_THRESHOLD">      0.00200000</i>
   <i name="RTIME">     -0.10000000</i>
   <i name="WPLASMAI">      0.00000000</i>
   <v name="DFIELD">      0.00000000      0.00000000      0.00000000</v>
   <v name="WPLASMA">      0.00000000      0.00000000      0.00000000      0.00000000      0.00000000      0.00000000      0.00000000      0.00000000      0.00000000</v>
  </separator>
  <separator name="orbital magnetization" >
   <i type="logical" name="NUCIND"> F  </i>
   <v name="MAGPOS">      0.00000000      0.00000000      0.00000000</v>
   <i type="logical" name="LNICSALL"> T  </i>
   <i type="logical" name="ORBITALMAG"> F  </i>
   <i type="logical" name="LMAGBLOCH"> F  </i>
   <i type="logical" name="LCHIMAG"> F  </i>
   <i type="logical" name="LGAUGE"> T  </i>
   <i type="int" name="MAGATOM">     0</i>
   <v name="MAGDIPOL">      0.00000000      0.00000000      0.00000000</v>
   <v name="AVECCONST">      0.00000000      0.00000000      0.00000000</v>
  </separator>
  <separator name="response functions" >
   <i type="logical" name="LADDER"> F  </i>
   <i type="logical" name="LRPAFORCE"> F  </i>
   <i type="logical" name="LFXC"> F  </i>
   <i type="logical" name="LHARTREE"> T  </i>
   <i type="int" name="IBSE">     0</i>
   <v type="int" name="KPOINT">    -1     0     0     0</v>
   <i type="logical" name="LTCTE"> F  </i>
   <i type="logical" name="LTETE"> F  </i>
   <i type="logical" name="LTRIPLET"> F  </i>
   <i type="logical" name="LFXCEPS"> F  </i>
   <i type="logical" name="LFXHEG"> F  </i>
   <i type="int" name="NATURALO">     2</i>
   <i type="logical" name="L2ORDER"> F  </i>
   <i type="logical" name="LMP2LT"> F  </i>
   <i type="logical" name="LUSEW"> F  </i>
   <i name="ENCUTGW">     -2.00000000</i>
   <i name="ENCUTGWSOFT">     -2.00000000</i>
   <i name="ENCUTLF">     -1.00000000</i>
   <i type="int" name="LMAXMP2">    -1</i>
   <i name="SCISSOR">      0.00000000</i>
   <i type="int" name="NOMEGA">     0</i>
   <i type="int" name="NOMEGAR">     0</i>
   <i type="int" name="NBANDSGW">    -1</i>
   <i type="int" name="NBANDSO">    -1</i>
   <i type="int" name="NBANDSV">    -1</i>
   <i type="int" name="NELM">   100</i>
   <i type="int" name="NELMHF">     1</i>
   <i type="int" name="DIM">     3</i>
   <i type="int" name="ANTIRES">     0</i>
   <i name="OMEGAMAX">    -30.00000000</i>
   <i name="OMEGAMIN">    -30.00000000</i>
   <i name="OMEGATL">   -200.00000000</i>
   <i type="int" name="OMEGAGRID">   140</i>
   <i name="CSHIFT">     -0.10000000</i>
   <i type="logical" name="SELFENERGY"> F  </i>
   <i type="logical" name="LSPECTRAL"> F  </i>
   <i type="logical" name="LSPECTRALGW"> F  </i>
   <i type="logical" name="LSINGLES"> F  </i>
   <i type="logical" name="LFERMIGW"> F  </i>
   <i type="logical" name="ODDONLYGW"> F  </i>
   <i type="logical" name="EVENONLYGW"> F  </i>
   <i type="int" name="NKREDLFX">     1</i>
   <i type="int" name="NKREDLFY">     1</i>
   <i type="int" name="NKREDLFZ">     1</i>
   <i type="int" name="MAXMEM">  2800</i>
   <i type="int" name="TELESCOPE">     0</i>
   <i type="int" name="TAUPAR">     1</i>
   <i type="int" name="OMEGAPAR">    -1</i>
   <i name="LAMBDA">      1.00000000</i>
  </separator>
  <separator name="External order field" >
   <i name="OFIELD_KAPPA">      0.00000000</i>
   <v name="OFIELD_K">      0.00000000      0.00000000      0.00000000</v>
   <i name="OFIELD_Q6_NEAR">      0.00000000</i>
   <i name="OFIELD_Q6_FAR">      0.00000000</i>
   <i name="OFIELD_A">      0.00000000</i>
  </separator>
 </parameters>
 <atominfo>
  <atoms>       8 </atoms>
  <types>       1 </types>
  <array name="atoms" >
   <dimension dim="1">ion</dimension>
   <field type="string">element</field>
   <field type="int">atomtype</field>
   <set>
    <rc><c>H </c><c>   1</c></rc>
    <rc><c>H </c><c>   1</c></rc>
    <rc><c>H </c><c>   1</c></rc>
    <rc><c>H </c><c>   1</c></rc>
    <rc><c>H </c><c>   1</c></rc>
    <rc><c>H </c><c>   1</c></rc>
    <rc><c>H </c><c>   1</c></rc>
    <rc><c>H </c><c>   1</c></rc>
   </set>
  </array>
  <array name="atomtypes" >
   <dimension dim="1">type</dimension>
   <field type="int">atomspertype</field>
   <field type="string">element</field>
   <field>mass</field>
   <field>valence</field>
   <field type="string">pseudopotential</field>
   <set>
    <rc><c>   8</c><c>H </c><c>      1.00000000</c><c>      1.00000000</c><c>  PAW_PBE H 15Jun2001                   </c></rc>
   </set>
  </array>
 </atominfo>
 <structure name="initialpos" >
  <crystal>
   <varray name="basis" >
    <v>      15.00000000       0.00000000       0.00000000 </v>
    <v>       0.00000000      15.00000000       0.00000000 </v>
    <v>       0.00000000       0.00000000      12.80000000 </v>
   </varray>
   <i name="volume">   2880.00000000 </i>
   <varray name="rec_basis" >
    <v>       0.06666667      -0.00000000       0.00000000 </v>
    <v>       0.00000000       0.06666667       0.00000000 </v>
    <v>      -0.00000000      -0.00000000       0.07812500 </v>
   </varray>
  </crystal>
  <varray name="positions" >
   <v>       0.00000000       0.00000000       0.00000000 </v>
   <v>       0.00000000       0.00000000       0.12500000 </v>
   <v>       0.00000000       0.00000000       0.25000000 </v>
   <v>       0.00000000       0.00000000       0.37500000 </v>
   <v>       0.00000000       0.00000000       0.50000000 </v>
   <v>       0.00000000       0.00000000       0.62500000 </v>
   <v>       0.00000000       0.00000000       0.75000000 </v>
   <v>       0.00000000       0.00000000       0.87500000 </v>
  </varray>
 </structure>
 <calculation>
  <scstep>
   <time name="dav">    0.48    0.48</time>
   <time name="total">    1.13    1.13</time>
   <energy>
    <i name="alphaZ">      0.05413706 </i>
    <i name="ewald">     58.43304870 </i>
    <i name="hartreedc">   -117.84824032 </i>
    <i name="XCdc">     16.43731230 </i>
    <i name="pawpsdc">     17.07221949 </i>
    <i name="pawaedc">    -17.14324176 </i>
    <i name="eentropy">     -0.00000000 </i>
    <i name="bandstr">    -50.94732120 </i>
    <i name="atom">     99.56620307 </i>
    <i name="e_fr_energy">      5.62411733 </i>
    <i name="e_wo_entrp">      5.62411733 </i>
    <i name="e_0_energy">      5.62411733 </i>
   </energy>
  </scstep>
  <scstep>
   <time name="dav">    0.65    0.65</time>
   <time name="total">    0.65    0.65</time>
   <energy>
    <i name="e_fr_energy">    -13.96819655 </i>
    <i name="e_wo_entrp">    -13.96482990 </i>
    <i name="e_0_energy">    -13.96651322 </i>
   </energy>
  </scstep>
  <scstep>
   <time name="dav">    0.57    0.57</time>
   <time name="total">    0.57    0.57</time>
   <energy>
    <i name="e_fr_energy">    -15.20524653 </i>
    <i name="e_wo_entrp">    -14.98567637 </i>
    <i name="e_0_energy">    -15.09546145 </i>
   </energy>
  </scstep>
  <scstep>
   <time name="dav">    0.52    0.52</time>
   <time name="total">    0.52    0.52</time>
   <energy>
    <i name="e_fr_energy">    -15.26404946 </i>
    <i name="e_wo_entrp">    -15.03837365 </i>
    <i name="e_0_energy">    -15.15121156 </i>
   </energy>
  </scstep>
  <scstep>
   <time name="dav">    0.56    0.56</time>
   <time name="total">    0.76    0.76</time>
   <energy>
    <i name="e_fr_energy">    -15.26419060 </i>
    <i name="e_wo_entrp">    -15.03851476 </i>
    <i name="e_0_energy">    -15.15135268 </i>
   </energy>
  </scstep>
  <scstep>
   <time name="dav">    0.53    0.53</time>
   <time name="total">    1.39    1.39</time>
   <energy>
    <i name="e_fr_energy">    -15.28369455 </i>
    <i name="e_wo_entrp">    -15.05801872 </i>
    <i name="e_0_energy">    -15.17085663 </i>
   </energy>
  </scstep>
  <scstep>
   <time name="dav">    0.48    0.48</time>
   <time name="total">    1.34    1.34</time>
   <energy>
    <i name="e_fr_energy">    -15.29667687 </i>
    <i name="e_wo_entrp">    -15.07100104 </i>
    <i name="e_0_energy">    -15.18383895 </i>
   </energy>
  </scstep>
  <scstep>
   <time name="dav">    0.54    0.54</time>
   <time name="total">    1.40    1.40</time>
   <energy>
    <i name="e_fr_energy">    -15.29913105 </i>
    <i name="e_wo_entrp">    -15.07345522 </i>
    <i name="e_0_energy">    -15.18629313 </i>
   </energy>
  </scstep>
  <scstep>
   <time name="dav">    0.48    0.48</time>
   <time name="total">    1.35    1.35</time>
   <energy>
    <i name="e_fr_energy">    -15.29955717 </i>
    <i name="e_wo_entrp">    -15.07388134 </i>
    <i name="e_0_energy">    -15.18671926 </i>
   </energy>
  </scstep>
  <scstep>
   <time name="dav">    0.43    0.43</time>
   <time name="total">    1.30    1.30</time>
   <energy>
    <i name="e_fr_energy">    -15.30027700 </i>
    <i name="e_wo_entrp">    -15.07460116 </i>
    <i name="e_0_energy">    -15.18743908 </i>
   </energy>
  </scstep>
  <scstep>
   <time name="dav">    0.45    0.45</time>
   <time name="total">    1.33    1.36</time>
   <energy>
    <i name="e_fr_energy">    -15.30021920 </i>
    <i name="e_wo_entrp">    -15.07454337 </i>
    <i name="e_0_energy">    -15.18738129 </i>
   </energy>
  </scstep>
  <scstep>
   <time name="dav">    0.46    0.46</time>
   <time name="total">    1.32    1.32</time>
   <energy>
    <i name="e_fr_energy">    -15.30095081 </i>
    <i name="e_wo_entrp">    -15.07527498 </i>
    <i name="e_0_energy">    -15.18811290 </i>
   </energy>
  </scstep>
  <scstep>
   <time name="dav">    0.43    0.43</time>
   <time name="total">    1.30    1.30</time>
   <energy>
    <i name="e_fr_energy">    -15.30133698 </i>
    <i name="e_wo_entrp">    -15.07566115 </i>
    <i name="e_0_energy">    -15.18849907 </i>
   </energy>
  </scstep>
  <scstep>
   <time name="dav">    0.43    0.43</time>
   <time name="total">    1.30    1.30</time>
   <energy>
    <i name="e_fr_energy">    -15.30155701 </i>
    <i name="e_wo_entrp">    -15.07588118 </i>
    <i name="e_0_energy">    -15.18871910 </i>
   </energy>
  </scstep>
  <scstep>
   <time name="dav">    0.44    0.44</time>
   <time name="total">    1.32    1.31</time>
   <energy>
    <i name="e_fr_energy">    -15.30164533 </i>
    <i name="e_wo_entrp">    -15.07596950 </i>
    <i name="e_0_energy">    -15.18880742 </i>
   </energy>
  </scstep>
  <scstep>
   <time name="dav">    0.44    0.44</time>
   <time name="total">    1.33    1.33</time>
   <energy>
    <i name="e_fr_energy">    -15.30166626 </i>
    <i name="e_wo_entrp">    -15.07599043 </i>
    <i name="e_0_energy">    -15.18882835 </i>
   </energy>
  </scstep>
  <scstep>
   <time name="dav">    0.43    0.43</time>
   <time name="total">    1.31    1.31</time>
   <energy>
    <i name="e_fr_energy">    -15.30168518 </i>
    <i name="e_wo_entrp">    -15.07600935 </i>
    <i name="e_0_energy">    -15.18884727 </i>
   </energy>
  </scstep>
  <scstep>
   <time name="dav">    0.44    0.43</time>
   <time name="total">    1.31    1.31</time>
   <energy>
    <i name="e_fr_energy">    -15.30168641 </i>
    <i name="e_wo_entrp">    -15.07601058 </i>
    <i name="e_0_energy">    -15.18884849 </i>
   </energy>
  </scstep>
  <scstep>
   <time name="dav">    0.43    0.43</time>
   <time name="total">    1.31    1.31</time>
   <energy>
    <i name="e_fr_energy">    -15.30168769 </i>
    <i name="e_wo_entrp">    -15.07601186 </i>
    <i name="e_0_energy">    -15.18884978 </i>
   </energy>
  </scstep>
  <scstep>
   <time name="dav">    0.43    0.43</time>
   <time name="total">    1.32    1.32</time>
   <energy>
    <i name="e_fr_energy">    -15.30168901 </i>
    <i name="e_wo_entrp">    -15.07601317 </i>
    <i name="e_0_energy">    -15.18885109 </i>
   </energy>
  </scstep>
  <scstep>
   <time name="dav">    0.51    0.51</time>
   <time name="total">    1.19    1.19</time>
   <energy>
    <i name="alphaZ">      0.05413706 </i>
    <i name="ewald">     58.43304870 </i>
    <i name="hartreedc">   -121.54783163 </i>
    <i name="XCdc">     16.87034197 </i>
    <i name="pawpsdc">     26.54753590 </i>
    <i name="pawaedc">    -26.61395600 </i>
    <i name="eentropy">     -0.22567583 </i>
    <i name="bandstr">    -68.38549240 </i>
    <i name="atom">     99.56620307 </i>
    <i name="e_fr_energy">    -15.30168916 </i>
    <i name="e_wo_entrp">    -15.07601332 </i>
    <i name="e_0_energy">    -15.18885124 </i>
   </energy>
  </scstep>
  <structure>
   <crystal>
    <varray name="basis" >
     <v>      15.00000000       0.00000000       0.00000000 </v>
     <v>       0.00000000      15.00000000       0.00000000 </v>
     <v>       0.00000000       0.00000000      12.80000000 </v>
    </varray>
    <i name="volume">   2880.00000000 </i>
    <varray name="rec_basis" >
     <v>       0.06666667      -0.00000000       0.00000000 </v>
     <v>       0.00000000       0.06666667       0.00000000 </v>
     <v>      -0.00000000      -0.00000000       0.07812500 </v>
    </varray>
   </crystal>
   <varray name="positions" >
    <v>       0.00000000       0.00000000       0.00000000 </v>
    <v>       0.00000000       0.00000000       0.12500000 </v>
    <v>       0.00000000       0.00000000       0.25000000 </v>
    <v>       0.00000000       0.00000000       0.37500000 </v>
    <v>       0.00000000       0.00000000       0.50000000 </v>
    <v>       0.00000000       0.00000000       0.62500000 </v>
    <v>       0.00000000       0.00000000       0.75000000 </v>
    <v>       0.00000000       0.00000000       0.87500000 </v>
   </varray>
  </structure>
  <varray name="forces" >
   <v>      -0.00000000       0.00000000      -0.00000000 </v>
   <v>      -0.00000000      -0.00000000       0.00000000 </v>
   <v>      -0.00000000       0.00000000       0.00000000 </v>
   <v>       0.00000000      -0.00000000      -0.00000000 </v>
   <v>       0.00000000       0.00000000       0.00000000 </v>
   <v>       0.00000000       0.00000000      -0.00000000 </v>
   <v>      -0.00000000      -0.00000000       0.00000000 </v>
   <v>      -0.00000000       0.00000000      -0.00000000 </v>
  </varray>
  <varray name="stress" >
   <v>      -0.50607003      -0.00000000      -0.00000000 </v>
   <v>      -0.00000000      -0.50607003      -0.00000000 </v>
   <v>      -0.00000000      -0.00000000     -12.90807491 </v>
  </varray>
  <energy>
   <i name="e_fr_energy">    -15.30168916 </i>
   <i name="e_wo_entrp">    -15.18885124 </i>
   <i name="e_0_energy">     -0.22567583 </i>
  </energy>
  <time name="totalsc">   26.06   26.07</time>
  <eigenvalues>
   <array>
    <dimension dim="1">band</dimension>
    <dimension dim="2">kpoint</dimension>
    <dimension dim="3">spin</dimension>
    <field>eigene</field>
    <field>occ</field>
    <set>
     <set comment="spin 1">
      <set comment="kpoint 1">
       <r>   -9.8351    1.0000 </r>
       <r>   -8.9704    1.0000 </r>
       <r>   -8.9704    1.0000 </r>
       <r>   -6.4169    0.5000 </r>
       <r>   -6.4169    0.5000 </r>
       <r>   -2.4478    0.0000 </r>
       <r>   -2.4478    0.0000 </r>
       <r>   -0.1618    0.0000 </r>
       <r>   -0.1618    0.0000 </r>
       <r>   -0.1191    0.0000 </r>
       <r>    0.5980    0.0000 </r>
       <r>    0.6077    0.0000 </r>
      </set>
     </set>
     <set comment="spin 2">
      <set comment="kpoint 1">
       <r>   -9.8351    1.0000 </r>
       <r>   -8.9704    1.0000 </r>
       <r>   -8.9704    1.0000 </r>
       <r>   -6.4169    0.5000 </r>
       <r>   -6.4169    0.5000 </r>
       <r>   -2.4478    0.0000 </r>
       <r>   -2.4478    0.0000 </r>
       <r>   -0.1618    0.0000 </r>
       <r>   -0.1618    0.0000 </r>
       <r>   -0.1195    0.0000 </r>
       <r>    0.5969    0.0000 </r>
       <r>    0.6075    0.0000 </r>
      </set>
     </set>
    </set>
   </array>
  </eigenvalues>
  <separator name="orbital magnetization" >
   <v name="MAGDIPOLOUT">      0.00000000      0.00000000      0.00000000</v>
  </separator>
  <dos>
   <i name="efermi">     -6.41688934 </i>
   <total>
    <array>
     <dimension dim="1">gridpoints</dimension>
     <dimension dim="2">spin</dimension>
     <field>energy</field>
     <field>total</field>
     <field>integrated</field>
     <set>
      <set comment="spin 1">
       <r>   -11.8351     0.0000     0.0000 </r>
       <r>   -11.7869     0.0000     0.0000 </r>
       <r>   -11.7388     0.0000     0.0000 </r>
       <r>   -11.6906     0.0000     0.0000 </r>
       <r>   -11.6425     0.0000     0.0000 </r>
       <r>   -11.5943     0.0000     0.0000 </r>
       <r>   -11.5462     0.0000     0.0000 </r>
       <r>   -11.4981     0.0000     0.0000 </r>
       <r>   -11.4499     0.0000     0.0000 </r>
       <r>   -11.4018     0.0000     0.0000 </r>
       <r>   -11.3536     0.0000     0.0000 </r>
       <r>   -11.3055     0.0000     0.0000 </r>
       <r>   -11.2573     0.0000     0.0000 </r>
       <r>   -11.2092     0.0000     0.0000 </r>
       <r>   -11.1611     0.0000     0.0000 </r>
       <r>   -11.1129     0.0000     0.0000 </r>
       <r>   -11.0648     0.0000     0.0000 </r>
       <r>   -11.0166     0.0000     0.0000 </r>
       <r>   -10.9685     0.0000     0.0000 </r>
       <r>   -10.9203     0.0000     0.0000 </r>
       <r>   -10.8722     0.0000     0.0000 </r>
       <r>   -10.8241     0.0000     0.0000 </r>
       <r>   -10.7759     0.0000     0.0000 </r>
       <r>   -10.7278     0.0000     0.0000 </r>
       <r>   -10.6796     0.0000     0.0000 </r>
       <r>   -10.6315     0.0000     0.0000 </r>
       <r>   -10.5833     0.0000     0.0000 </r>
       <r>   -10.5352     0.0000     0.0000 </r>
       <r>   -10.4871     0.0001     0.0000 </r>
       <r>   -10.4389     0.0003     0.0000 </r>
       <r>   -10.3908     0.0014     0.0001 </r>
       <r>   -10.3426     0.0051     0.0003 </r>
       <r>   -10.2945     0.0172     0.0012 </r>
       <r>   -10.2463     0.0514     0.0036 </r>
       <r>   -10.1982     0.1370     0.0102 </r>
       <r>   -10.1501     0.3258     0.0259 </r>
       <r>   -10.1019     0.6904     0.0592 </r>
       <r>   -10.0538     1.3044     0.1219 </r>
       <r>   -10.0056     2.1973     0.2277 </r>
       <r>    -9.9575     3.2999     0.3866 </r>
       <r>    -9.9094     4.4185     0.5993 </r>
       <r>    -9.8612     5.2748     0.8533 </r>
       <r>    -9.8131     5.6142     1.1235 </r>
       <r>    -9.7649     5.3275     1.3800 </r>
       <r>    -9.7168     4.5073     1.5970 </r>
       <r>    -9.6686     3.4000     1.7607 </r>
       <r>    -9.6205     2.2866     1.8708 </r>
       <r>    -9.5724     1.3716     1.9368 </r>
       <r>    -9.5242     0.7357     1.9722 </r>
       <r>    -9.4761     0.3601     1.9896 </r>
       <r>    -9.4279     0.1844     1.9984 </r>
       <r>    -9.3798     0.1634     2.0063 </r>
       <r>    -9.3316     0.3033     2.0209 </r>
       <r>    -9.2835     0.6785     2.0536 </r>
       <r>    -9.2354     1.4209     2.1220 </r>
       <r>    -9.1872     2.6698     2.2505 </r>
       <r>    -9.1391     4.4762     2.4660 </r>
       <r>    -9.0909     6.6917     2.7882 </r>
       <r>    -9.0428     8.9191     3.2175 </r>
       <r>    -8.9946    10.5990     3.7278 </r>
       <r>    -8.9465    11.2295     4.2684 </r>
       <r>    -8.8984    10.6076     4.7791 </r>
       <r>    -8.8502     8.9336     5.2092 </r>
       <r>    -8.8021     6.7079     5.5321 </r>
       <r>    -8.7539     4.4906     5.7483 </r>
       <r>    -8.7058     2.6802     5.8773 </r>
       <r>    -8.6576     1.4262     5.9460 </r>
       <r>    -8.6095     0.6766     5.9786 </r>
       <r>    -8.5614     0.2862     5.9924 </r>
       <r>    -8.5132     0.1079     5.9975 </r>
       <r>    -8.4651     0.0363     5.9993 </r>
       <r>    -8.4169     0.0109     5.9998 </r>
       <r>    -8.3688     0.0029     6.0000 </r>
       <r>    -8.3206     0.0007     6.0000 </r>
       <r>    -8.2725     0.0001     6.0000 </r>
       <r>    -8.2244     0.0000     6.0000 </r>
       <r>    -8.1762     0.0000     6.0000 </r>
       <r>    -8.1281     0.0000     6.0000 </r>
       <r>    -8.0799     0.0000     6.0000 </r>
       <r>    -8.0318     0.0000     6.0000 </r>
       <r>    -7.9837     0.0000     6.0000 </r>
       <r>    -7.9355     0.0000     6.0000 </r>
       <r>    -7.8874     0.0000     6.0000 </r>
       <r>    -7.8392     0.0000     6.0000 </r>
       <r>    -7.7911     0.0000     6.0000 </r>
       <r>    -7.7429     0.0000     6.0000 </r>
       <r>    -7.6948     0.0000     6.0000 </r>
       <r>    -7.6467     0.0000     6.0000 </r>
       <r>    -7.5985     0.0000     6.0000 </r>
       <r>    -7.5504     0.0000     6.0000 </r>
       <r>    -7.5022     0.0000     6.0000 </r>
       <r>    -7.4541     0.0000     6.0000 </r>
       <r>    -7.4059     0.0000     6.0000 </r>
       <r>    -7.3578     0.0000     6.0000 </r>
       <r>    -7.3097     0.0000     6.0000 </r>
       <r>    -7.2615     0.0000     6.0000 </r>
       <r>    -7.2134     0.0000     6.0000 </r>
       <r>    -7.1652     0.0000     6.0000 </r>
       <r>    -7.1171     0.0000     6.0000 </r>
       <r>    -7.0689     0.0001     6.0000 </r>
       <r>    -7.0208     0.0006     6.0000 </r>
       <r>    -6.9727     0.0027     6.0002 </r>
       <r>    -6.9245     0.0102     6.0007 </r>
       <r>    -6.8764     0.0343     6.0023 </r>
       <r>    -6.8282     0.1027     6.0073 </r>
       <r>    -6.7801     0.2739     6.0204 </r>
       <r>    -6.7319     0.6510     6.0518 </r>
       <r>    -6.6838     1.3799     6.1182 </r>
       <r>    -6.6357     2.6074     6.2437 </r>
       <r>    -6.5875     4.3926     6.4552 </r>
       <r>    -6.5394     6.5976     6.7728 </r>
       <r>    -6.4912     8.8350     7.1982 </r>
       <r>    -6.4431    10.5483     7.7060 </r>
       <r>    -6.3950    11.2283     8.2466 </r>
       <r>    -6.3468    10.6561     8.7596 </r>
       <r>    -6.2987     9.0166     9.1937 </r>
       <r>    -6.2505     6.8020     9.5211 </r>
       <r>    -6.2024     4.5750     9.7414 </r>
       <r>    -6.1542     2.7434     9.8734 </r>
       <r>    -6.1061     1.4667     9.9441 </r>
       <r>    -6.0580     0.6991     9.9777 </r>
       <r>    -6.0098     0.2971     9.9920 </r>
       <r>    -5.9617     0.1125     9.9974 </r>
       <r>    -5.9135     0.0380     9.9993 </r>
       <r>    -5.8654     0.0114     9.9998 </r>
       <r>    -5.8172     0.0031    10.0000 </r>
       <r>    -5.7691     0.0007    10.0000 </r>
       <r>    -5.7210     0.0002    10.0000 </r>
       <r>    -5.6728     0.0000    10.0000 </r>
       <r>    -5.6247     0.0000    10.0000 </r>
       <r>    -5.5765     0.0000    10.0000 </r>
       <r>    -5.5284     0.0000    10.0000 </r>
       <r>    -5.4802     0.0000    10.0000 </r>
       <r>    -5.4321     0.0000    10.0000 </r>
       <r>    -5.3840     0.0000    10.0000 </r>
       <r>    -5.3358     0.0000    10.0000 </r>
       <r>    -5.2877     0.0000    10.0000 </r>
       <r>    -5.2395     0.0000    10.0000 </r>
       <r>    -5.1914     0.0000    10.0000 </r>
       <r>    -5.1432     0.0000    10.0000 </r>
       <r>    -5.0951     0.0000    10.0000 </r>
       <r>    -5.0470     0.0000    10.0000 </r>
       <r>    -4.9988     0.0000    10.0000 </r>
       <r>    -4.9507     0.0000    10.0000 </r>
       <r>    -4.9025     0.0000    10.0000 </r>
       <r>    -4.8544     0.0000    10.0000 </r>
       <r>    -4.8062     0.0000    10.0000 </r>
       <r>    -4.7581     0.0000    10.0000 </r>
       <r>    -4.7100     0.0000    10.0000 </r>
       <r>    -4.6618     0.0000    10.0000 </r>
       <r>    -4.6137     0.0000    10.0000 </r>
       <r>    -4.5655     0.0000    10.0000 </r>
       <r>    -4.5174     0.0000    10.0000 </r>
       <r>    -4.4693     0.0000    10.0000 </r>
       <r>    -4.4211     0.0000    10.0000 </r>
       <r>    -4.3730     0.0000    10.0000 </r>
       <r>    -4.3248     0.0000    10.0000 </r>
       <r>    -4.2767     0.0000    10.0000 </r>
       <r>    -4.2285     0.0000    10.0000 </r>
       <r>    -4.1804     0.0000    10.0000 </r>
       <r>    -4.1323     0.0000    10.0000 </r>
       <r>    -4.0841     0.0000    10.0000 </r>
       <r>    -4.0360     0.0000    10.0000 </r>
       <r>    -3.9878     0.0000    10.0000 </r>
       <r>    -3.9397     0.0000    10.0000 </r>
       <r>    -3.8915     0.0000    10.0000 </r>
       <r>    -3.8434     0.0000    10.0000 </r>
       <r>    -3.7953     0.0000    10.0000 </r>
       <r>    -3.7471     0.0000    10.0000 </r>
       <r>    -3.6990     0.0000    10.0000 </r>
       <r>    -3.6508     0.0000    10.0000 </r>
       <r>    -3.6027     0.0000    10.0000 </r>
       <r>    -3.5545     0.0000    10.0000 </r>
       <r>    -3.5064     0.0000    10.0000 </r>
       <r>    -3.4583     0.0000    10.0000 </r>
       <r>    -3.4101     0.0000    10.0000 </r>
       <r>    -3.3620     0.0000    10.0000 </r>
       <r>    -3.3138     0.0000    10.0000 </r>
       <r>    -3.2657     0.0000    10.0000 </r>
       <r>    -3.2175     0.0000    10.0000 </r>
       <r>    -3.1694     0.0000    10.0000 </r>
       <r>    -3.1213     0.0001    10.0000 </r>
       <r>    -3.0731     0.0003    10.0000 </r>
       <r>    -3.0250     0.0015    10.0001 </r>
       <r>    -2.9768     0.0058    10.0004 </r>
       <r>    -2.9287     0.0204    10.0013 </r>
       <r>    -2.8806     0.0641    10.0044 </r>
       <r>    -2.8324     0.1797    10.0131 </r>
       <r>    -2.7843     0.4496    10.0347 </r>
       <r>    -2.7361     1.0028    10.0830 </r>
       <r>    -2.6880     1.9939    10.1790 </r>
       <r>    -2.6398     3.5347    10.3492 </r>
       <r>    -2.5917     5.5865    10.6181 </r>
       <r>    -2.5436     7.8719    10.9971 </r>
       <r>    -2.4954     9.8895    11.4732 </r>
       <r>    -2.4473    11.0771    12.0065 </r>
       <r>    -2.3991    11.0619    12.5390 </r>
       <r>    -2.3510     9.8490    13.0132 </r>
       <r>    -2.3028     7.8182    13.3896 </r>
       <r>    -2.2547     5.5332    13.6560 </r>
       <r>    -2.2066     3.4914    13.8240 </r>
       <r>    -2.1584     1.9641    13.9186 </r>
       <r>    -2.1103     0.9851    13.9660 </r>
       <r>    -2.0621     0.4405    13.9872 </r>
       <r>    -2.0140     0.1756    13.9957 </r>
       <r>    -1.9658     0.0624    13.9987 </r>
       <r>    -1.9177     0.0198    13.9996 </r>
       <r>    -1.8696     0.0056    13.9999 </r>
       <r>    -1.8214     0.0014    14.0000 </r>
       <r>    -1.7733     0.0003    14.0000 </r>
       <r>    -1.7251     0.0001    14.0000 </r>
       <r>    -1.6770     0.0000    14.0000 </r>
       <r>    -1.6288     0.0000    14.0000 </r>
       <r>    -1.5807     0.0000    14.0000 </r>
       <r>    -1.5326     0.0000    14.0000 </r>
       <r>    -1.4844     0.0000    14.0000 </r>
       <r>    -1.4363     0.0000    14.0000 </r>
       <r>    -1.3881     0.0000    14.0000 </r>
       <r>    -1.3400     0.0000    14.0000 </r>
       <r>    -1.2918     0.0000    14.0000 </r>
       <r>    -1.2437     0.0000    14.0000 </r>
       <r>    -1.1956     0.0000    14.0000 </r>
       <r>    -1.1474     0.0000    14.0000 </r>
       <r>    -1.0993     0.0000    14.0000 </r>
       <r>    -1.0511     0.0000    14.0000 </r>
       <r>    -1.0030     0.0000    14.0000 </r>
       <r>    -0.9549     0.0000    14.0000 </r>
       <r>    -0.9067     0.0000    14.0000 </r>
       <r>    -0.8586     0.0000    14.0000 </r>
       <r>    -0.8104     0.0002    14.0000 </r>
       <r>    -0.7623     0.0008    14.0000 </r>
       <r>    -0.7141     0.0034    14.0002 </r>
       <r>    -0.6660     0.0130    14.0008 </r>
       <r>    -0.6179     0.0438    14.0029 </r>
       <r>    -0.5697     0.1319    14.0093 </r>
       <r>    -0.5216     0.3547    14.0264 </r>
       <r>    -0.4734     0.8520    14.0674 </r>
       <r>    -0.4253     1.8275    14.1554 </r>
       <r>    -0.3771     3.5005    14.3239 </r>
       <r>    -0.3290     5.9888    14.6122 </r>
       <r>    -0.2809     9.1523    15.0528 </r>
       <r>    -0.2327    12.4951    15.6544 </r>
       <r>    -0.1846    15.2410    16.3881 </r>
       <r>    -0.1364    16.6109    17.1878 </r>
       <r>    -0.0883    16.1775    17.9666 </r>
       <r>    -0.0401    14.0803    18.6445 </r>
       <r>     0.0080    10.9531    19.1718 </r>
       <r>     0.0561     7.6179    19.5385 </r>
       <r>     0.1043     4.7446    19.7670 </r>
       <r>     0.1524     2.6709    19.8955 </r>
       <r>     0.2006     1.4300    19.9644 </r>
       <r>     0.2487     0.9054    20.0080 </r>
       <r>     0.2969     0.9882    20.0555 </r>
       <r>     0.3450     1.6533    20.1351 </r>
       <r>     0.3931     2.9304    20.2762 </r>
       <r>     0.4413     4.7932    20.5070 </r>
       <r>     0.4894     7.0334    20.8456 </r>
       <r>     0.5376     9.2124    21.2891 </r>
       <r>     0.5857    10.7614    21.8072 </r>
       <r>     0.6338    11.2097    22.3468 </r>
       <r>     0.6820    10.4120    22.8481 </r>
       <r>     0.7301     8.6236    23.2632 </r>
       <r>     0.7783     6.3688    23.5699 </r>
       <r>     0.8264     4.1940    23.7718 </r>
       <r>     0.8746     2.4627    23.8903 </r>
       <r>     0.9227     1.2895    23.9524 </r>
       <r>     0.9708     0.6020    23.9814 </r>
       <r>     1.0190     0.2506    23.9935 </r>
       <r>     1.0671     0.0930    23.9979 </r>
       <r>     1.1153     0.0308    23.9994 </r>
       <r>     1.1634     0.0091    23.9999 </r>
       <r>     1.2116     0.0024    24.0000 </r>
       <r>     1.2597     0.0006    24.0000 </r>
       <r>     1.3078     0.0001    24.0000 </r>
       <r>     1.3560     0.0000    24.0000 </r>
       <r>     1.4041     0.0000    24.0000 </r>
       <r>     1.4523     0.0000    24.0000 </r>
       <r>     1.5004     0.0000    24.0000 </r>
       <r>     1.5486     0.0000    24.0000 </r>
       <r>     1.5967     0.0000    24.0000 </r>
       <r>     1.6448     0.0000    24.0000 </r>
       <r>     1.6930     0.0000    24.0000 </r>
       <r>     1.7411     0.0000    24.0000 </r>
       <r>     1.7893     0.0000    24.0000 </r>
       <r>     1.8374     0.0000    24.0000 </r>
       <r>     1.8856     0.0000    24.0000 </r>
       <r>     1.9337     0.0000    24.0000 </r>
       <r>     1.9818     0.0000    24.0000 </r>
       <r>     2.0300     0.0000    24.0000 </r>
       <r>     2.0781     0.0000    24.0000 </r>
       <r>     2.1263     0.0000    24.0000 </r>
       <r>     2.1744     0.0000    24.0000 </r>
       <r>     2.2226     0.0000    24.0000 </r>
       <r>     2.2707     0.0000    24.0000 </r>
       <r>     2.3188     0.0000    24.0000 </r>
       <r>     2.3670     0.0000    24.0000 </r>
       <r>     2.4151     0.0000    24.0000 </r>
       <r>     2.4633     0.0000    24.0000 </r>
       <r>     2.5114     0.0000    24.0000 </r>
       <r>     2.5595     0.0000    24.0000 </r>
       <r>     2.6077     0.0000    24.0000 </r>
      </set>
      <set comment="spin 2">
       <r>   -11.8351     0.0000     0.0000 </r>
       <r>   -11.7869     0.0000     0.0000 </r>
       <r>   -11.7388     0.0000     0.0000 </r>
       <r>   -11.6906     0.0000     0.0000 </r>
       <r>   -11.6425     0.0000     0.0000 </r>
       <r>   -11.5943     0.0000     0.0000 </r>
       <r>   -11.5462     0.0000     0.0000 </r>
       <r>   -11.4981     0.0000     0.0000 </r>
       <r>   -11.4499     0.0000     0.0000 </r>
       <r>   -11.4018     0.0000     0.0000 </r>
       <r>   -11.3536     0.0000     0.0000 </r>
       <r>   -11.3055     0.0000     0.0000 </r>
       <r>   -11.2573     0.0000     0.0000 </r>
       <r>   -11.2092     0.0000     0.0000 </r>
       <r>   -11.1611     0.0000     0.0000 </r>
       <r>   -11.1129     0.0000     0.0000 </r>
       <r>   -11.0648     0.0000     0.0000 </r>
       <r>   -11.0166     0.0000     0.0000 </r>
       <r>   -10.9685     0.0000     0.0000 </r>
       <r>   -10.9203     0.0000     0.0000 </r>
       <r>   -10.8722     0.0000     0.0000 </r>
       <r>   -10.8241     0.0000     0.0000 </r>
       <r>   -10.7759     0.0000     0.0000 </r>
       <r>   -10.7278     0.0000     0.0000 </r>
       <r>   -10.6796     0.0000     0.0000 </r>
       <r>   -10.6315     0.0000     0.0000 </r>
       <r>   -10.5833     0.0000     0.0000 </r>
       <r>   -10.5352     0.0000     0.0000 </r>
       <r>   -10.4871     0.0001     0.0000 </r>
       <r>   -10.4389     0.0003     0.0000 </r>
       <r>   -10.3908     0.0014     0.0001 </r>
       <r>   -10.3426     0.0051     0.0003 </r>
       <r>   -10.2945     0.0172     0.0012 </r>
       <r>   -10.2463     0.0514     0.0036 </r>
       <r>   -10.1982     0.1370     0.0102 </r>
       <r>   -10.1501     0.3258     0.0259 </r>
       <r>   -10.1019     0.6904     0.0592 </r>
       <r>   -10.0538     1.3044     0.1219 </r>
       <r>   -10.0056     2.1973     0.2277 </r>
       <r>    -9.9575     3.2999     0.3866 </r>
       <r>    -9.9094     4.4185     0.5993 </r>
       <r>    -9.8612     5.2748     0.8533 </r>
       <r>    -9.8131     5.6142     1.1235 </r>
       <r>    -9.7649     5.3275     1.3800 </r>
       <r>    -9.7168     4.5073     1.5970 </r>
       <r>    -9.6686     3.3999     1.7607 </r>
       <r>    -9.6205     2.2866     1.8708 </r>
       <r>    -9.5724     1.3716     1.9368 </r>
       <r>    -9.5242     0.7357     1.9722 </r>
       <r>    -9.4761     0.3601     1.9896 </r>
       <r>    -9.4279     0.1844     1.9984 </r>
       <r>    -9.3798     0.1634     2.0063 </r>
       <r>    -9.3316     0.3033     2.0209 </r>
       <r>    -9.2835     0.6785     2.0536 </r>
       <r>    -9.2354     1.4209     2.1220 </r>
       <r>    -9.1872     2.6698     2.2505 </r>
       <r>    -9.1391     4.4762     2.4660 </r>
       <r>    -9.0909     6.6917     2.7882 </r>
       <r>    -9.0428     8.9191     3.2175 </r>
       <r>    -8.9946    10.5990     3.7278 </r>
       <r>    -8.9465    11.2295     4.2684 </r>
       <r>    -8.8984    10.6076     4.7791 </r>
       <r>    -8.8502     8.9336     5.2092 </r>
       <r>    -8.8021     6.7079     5.5321 </r>
       <r>    -8.7539     4.4906     5.7483 </r>
       <r>    -8.7058     2.6802     5.8773 </r>
       <r>    -8.6576     1.4262     5.9460 </r>
       <r>    -8.6095     0.6766     5.9786 </r>
       <r>    -8.5614     0.2862     5.9924 </r>
       <r>    -8.5132     0.1079     5.9975 </r>
       <r>    -8.4651     0.0363     5.9993 </r>
       <r>    -8.4169     0.0109     5.9998 </r>
       <r>    -8.3688     0.0029     6.0000 </r>
       <r>    -8.3206     0.0007     6.0000 </r>
       <r>    -8.2725     0.0001     6.0000 </r>
       <r>    -8.2244     0.0000     6.0000 </r>
       <r>    -8.1762     0.0000     6.0000 </r>
       <r>    -8.1281     0.0000     6.0000 </r>
       <r>    -8.0799     0.0000     6.0000 </r>
       <r>    -8.0318     0.0000     6.0000 </r>
       <r>    -7.9837     0.0000     6.0000 </r>
       <r>    -7.9355     0.0000     6.0000 </r>
       <r>    -7.8874     0.0000     6.0000 </r>
       <r>    -7.8392     0.0000     6.0000 </r>
       <r>    -7.7911     0.0000     6.0000 </r>
       <r>    -7.7429     0.0000     6.0000 </r>
       <r>    -7.6948     0.0000     6.0000 </r>
       <r>    -7.6467     0.0000     6.0000 </r>
       <r>    -7.5985     0.0000     6.0000 </r>
       <r>    -7.5504     0.0000     6.0000 </r>
       <r>    -7.5022     0.0000     6.0000 </r>
       <r>    -7.4541     0.0000     6.0000 </r>
       <r>    -7.4059     0.0000     6.0000 </r>
       <r>    -7.3578     0.0000     6.0000 </r>
       <r>    -7.3097     0.0000     6.0000 </r>
       <r>    -7.2615     0.0000     6.0000 </r>
       <r>    -7.2134     0.0000     6.0000 </r>
       <r>    -7.1652     0.0000     6.0000 </r>
       <r>    -7.1171     0.0000     6.0000 </r>
       <r>    -7.0689     0.0001     6.0000 </r>
       <r>    -7.0208     0.0006     6.0000 </r>
       <r>    -6.9727     0.0027     6.0002 </r>
       <r>    -6.9245     0.0102     6.0007 </r>
       <r>    -6.8764     0.0343     6.0023 </r>
       <r>    -6.8282     0.1027     6.0073 </r>
       <r>    -6.7801     0.2739     6.0204 </r>
       <r>    -6.7319     0.6510     6.0518 </r>
       <r>    -6.6838     1.3799     6.1182 </r>
       <r>    -6.6357     2.6074     6.2437 </r>
       <r>    -6.5875     4.3926     6.4552 </r>
       <r>    -6.5394     6.5976     6.7728 </r>
       <r>    -6.4912     8.8350     7.1982 </r>
       <r>    -6.4431    10.5483     7.7060 </r>
       <r>    -6.3950    11.2283     8.2466 </r>
       <r>    -6.3468    10.6561     8.7596 </r>
       <r>    -6.2987     9.0166     9.1937 </r>
       <r>    -6.2505     6.8020     9.5211 </r>
       <r>    -6.2024     4.5750     9.7414 </r>
       <r>    -6.1542     2.7434     9.8734 </r>
       <r>    -6.1061     1.4667     9.9441 </r>
       <r>    -6.0580     0.6991     9.9777 </r>
       <r>    -6.0098     0.2971     9.9920 </r>
       <r>    -5.9617     0.1125     9.9974 </r>
       <r>    -5.9135     0.0380     9.9993 </r>
       <r>    -5.8654     0.0114     9.9998 </r>
       <r>    -5.8172     0.0031    10.0000 </r>
       <r>    -5.7691     0.0007    10.0000 </r>
       <r>    -5.7210     0.0002    10.0000 </r>
       <r>    -5.6728     0.0000    10.0000 </r>
       <r>    -5.6247     0.0000    10.0000 </r>
       <r>    -5.5765     0.0000    10.0000 </r>
       <r>    -5.5284     0.0000    10.0000 </r>
       <r>    -5.4802     0.0000    10.0000 </r>
       <r>    -5.4321     0.0000    10.0000 </r>
       <r>    -5.3840     0.0000    10.0000 </r>
       <r>    -5.3358     0.0000    10.0000 </r>
       <r>    -5.2877     0.0000    10.0000 </r>
       <r>    -5.2395     0.0000    10.0000 </r>
       <r>    -5.1914     0.0000    10.0000 </r>
       <r>    -5.1432     0.0000    10.0000 </r>
       <r>    -5.0951     0.0000    10.0000 </r>
       <r>    -5.0470     0.0000    10.0000 </r>
       <r>    -4.9988     0.0000    10.0000 </r>
       <r>    -4.9507     0.0000    10.0000 </r>
       <r>    -4.9025     0.0000    10.0000 </r>
       <r>    -4.8544     0.0000    10.0000 </r>
       <r>    -4.8062     0.0000    10.0000 </r>
       <r>    -4.7581     0.0000    10.0000 </r>
       <r>    -4.7100     0.0000    10.0000 </r>
       <r>    -4.6618     0.0000    10.0000 </r>
       <r>    -4.6137     0.0000    10.0000 </r>
       <r>    -4.5655     0.0000    10.0000 </r>
       <r>    -4.5174     0.0000    10.0000 </r>
       <r>    -4.4693     0.0000    10.0000 </r>
       <r>    -4.4211     0.0000    10.0000 </r>
       <r>    -4.3730     0.0000    10.0000 </r>
       <r>    -4.3248     0.0000    10.0000 </r>
       <r>    -4.2767     0.0000    10.0000 </r>
       <r>    -4.2285     0.0000    10.0000 </r>
       <r>    -4.1804     0.0000    10.0000 </r>
       <r>    -4.1323     0.0000    10.0000 </r>
       <r>    -4.0841     0.0000    10.0000 </r>
       <r>    -4.0360     0.0000    10.0000 </r>
       <r>    -3.9878     0.0000    10.0000 </r>
       <r>    -3.9397     0.0000    10.0000 </r>
       <r>    -3.8915     0.0000    10.0000 </r>
       <r>    -3.8434     0.0000    10.0000 </r>
       <r>    -3.7953     0.0000    10.0000 </r>
       <r>    -3.7471     0.0000    10.0000 </r>
       <r>    -3.6990     0.0000    10.0000 </r>
       <r>    -3.6508     0.0000    10.0000 </r>
       <r>    -3.6027     0.0000    10.0000 </r>
       <r>    -3.5545     0.0000    10.0000 </r>
       <r>    -3.5064     0.0000    10.0000 </r>
       <r>    -3.4583     0.0000    10.0000 </r>
       <r>    -3.4101     0.0000    10.0000 </r>
       <r>    -3.3620     0.0000    10.0000 </r>
       <r>    -3.3138     0.0000    10.0000 </r>
       <r>    -3.2657     0.0000    10.0000 </r>
       <r>    -3.2175     0.0000    10.0000 </r>
       <r>    -3.1694     0.0000    10.0000 </r>
       <r>    -3.1213     0.0001    10.0000 </r>
       <r>    -3.0731     0.0003    10.0000 </r>
       <r>    -3.0250     0.0015    10.0001 </r>
       <r>    -2.9768     0.0058    10.0004 </r>
       <r>    -2.9287     0.0204    10.0013 </r>
       <r>    -2.8806     0.0641    10.0044 </r>
       <r>    -2.8324     0.1797    10.0131 </r>
       <r>    -2.7843     0.4496    10.0347 </r>
       <r>    -2.7361     1.0028    10.0830 </r>
       <r>    -2.6880     1.9940    10.1790 </r>
       <r>    -2.6398     3.5347    10.3492 </r>
       <r>    -2.5917     5.5865    10.6181 </r>
       <r>    -2.5436     7.8719    10.9971 </r>
       <r>    -2.4954     9.8895    11.4732 </r>
       <r>    -2.4473    11.0771    12.0065 </r>
       <r>    -2.3991    11.0619    12.5390 </r>
       <r>    -2.3510     9.8490    13.0132 </r>
       <r>    -2.3028     7.8182    13.3896 </r>
       <r>    -2.2547     5.5332    13.6560 </r>
       <r>    -2.2066     3.4914    13.8240 </r>
       <r>    -2.1584     1.9641    13.9186 </r>
       <r>    -2.1103     0.9851    13.9660 </r>
       <r>    -2.0621     0.4405    13.9872 </r>
       <r>    -2.0140     0.1756    13.9957 </r>
       <r>    -1.9658     0.0624    13.9987 </r>
       <r>    -1.9177     0.0198    13.9996 </r>
       <r>    -1.8696     0.0056    13.9999 </r>
       <r>    -1.8214     0.0014    14.0000 </r>
       <r>    -1.7733     0.0003    14.0000 </r>
       <r>    -1.7251     0.0001    14.0000 </r>
       <r>    -1.6770     0.0000    14.0000 </r>
       <r>    -1.6288     0.0000    14.0000 </r>
       <r>    -1.5807     0.0000    14.0000 </r>
       <r>    -1.5326     0.0000    14.0000 </r>
       <r>    -1.4844     0.0000    14.0000 </r>
       <r>    -1.4363     0.0000    14.0000 </r>
       <r>    -1.3881     0.0000    14.0000 </r>
       <r>    -1.3400     0.0000    14.0000 </r>
       <r>    -1.2918     0.0000    14.0000 </r>
       <r>    -1.2437     0.0000    14.0000 </r>
       <r>    -1.1956     0.0000    14.0000 </r>
       <r>    -1.1474     0.0000    14.0000 </r>
       <r>    -1.0993     0.0000    14.0000 </r>
       <r>    -1.0511     0.0000    14.0000 </r>
       <r>    -1.0030     0.0000    14.0000 </r>
       <r>    -0.9549     0.0000    14.0000 </r>
       <r>    -0.9067     0.0000    14.0000 </r>
       <r>    -0.8586     0.0000    14.0000 </r>
       <r>    -0.8104     0.0002    14.0000 </r>
       <r>    -0.7623     0.0008    14.0000 </r>
       <r>    -0.7141     0.0034    14.0002 </r>
       <r>    -0.6660     0.0130    14.0008 </r>
       <r>    -0.6179     0.0438    14.0029 </r>
       <r>    -0.5697     0.1319    14.0093 </r>
       <r>    -0.5216     0.3549    14.0264 </r>
       <r>    -0.4734     0.8526    14.0674 </r>
       <r>    -0.4253     1.8288    14.1555 </r>
       <r>    -0.3771     3.5032    14.3241 </r>
       <r>    -0.3290     5.9933    14.6127 </r>
       <r>    -0.2809     9.1586    15.0536 </r>
       <r>    -0.2327    12.5026    15.6555 </r>
       <r>    -0.1846    15.2480    16.3896 </r>
       <r>    -0.1364    16.6155    17.1895 </r>
       <r>    -0.0883    16.1783    17.9683 </r>
       <r>    -0.0401    14.0769    18.6460 </r>
       <r>     0.0080    10.9468    19.1730 </r>
       <r>     0.0561     7.6105    19.5394 </r>
       <r>     0.1043     4.7381    19.7675 </r>
       <r>     0.1524     2.6665    19.8959 </r>
       <r>     0.2006     1.4285    19.9647 </r>
       <r>     0.2487     0.9077    20.0084 </r>
       <r>     0.2969     0.9956    20.0563 </r>
       <r>     0.3450     1.6675    20.1366 </r>
       <r>     0.3931     2.9523    20.2787 </r>
       <r>     0.4413     4.8217    20.5108 </r>
       <r>     0.4894     7.0639    20.8509 </r>
       <r>     0.5376     9.2377    21.2956 </r>
       <r>     0.5857    10.7743    21.8143 </r>
       <r>     0.6338    11.2059    22.3538 </r>
       <r>     0.6820    10.3928    22.8542 </r>
       <r>     0.7301     8.5950    23.2679 </r>
       <r>     0.7783     6.3384    23.5731 </r>
       <r>     0.8264     4.1681    23.7737 </r>
       <r>     0.8746     2.4441    23.8914 </r>
       <r>     0.9227     1.2779    23.9529 </r>
       <r>     0.9708     0.5958    23.9816 </r>
       <r>     1.0190     0.2477    23.9935 </r>
       <r>     1.0671     0.0918    23.9980 </r>
       <r>     1.1153     0.0303    23.9994 </r>
       <r>     1.1634     0.0089    23.9999 </r>
       <r>     1.2116     0.0024    24.0000 </r>
       <r>     1.2597     0.0006    24.0000 </r>
       <r>     1.3078     0.0001    24.0000 </r>
       <r>     1.3560     0.0000    24.0000 </r>
       <r>     1.4041     0.0000    24.0000 </r>
       <r>     1.4523     0.0000    24.0000 </r>
       <r>     1.5004     0.0000    24.0000 </r>
       <r>     1.5486     0.0000    24.0000 </r>
       <r>     1.5967     0.0000    24.0000 </r>
       <r>     1.6448     0.0000    24.0000 </r>
       <r>     1.6930     0.0000    24.0000 </r>
       <r>     1.7411     0.0000    24.0000 </r>
       <r>     1.7893     0.0000    24.0000 </r>
       <r>     1.8374     0.0000    24.0000 </r>
       <r>     1.8856     0.0000    24.0000 </r>
       <r>     1.9337     0.0000    24.0000 </r>
       <r>     1.9818     0.0000    24.0000 </r>
       <r>     2.0300     0.0000    24.0000 </r>
       <r>     2.0781     0.0000    24.0000 </r>
       <r>     2.1263     0.0000    24.0000 </r>
       <r>     2.1744     0.0000    24.0000 </r>
       <r>     2.2226     0.0000    24.0000 </r>
       <r>     2.2707     0.0000    24.0000 </r>
       <r>     2.3188     0.0000    24.0000 </r>
       <r>     2.3670     0.0000    24.0000 </r>
       <r>     2.4151     0.0000    24.0000 </r>
       <r>     2.4633     0.0000    24.0000 </r>
       <r>     2.5114     0.0000    24.0000 </r>
       <r>     2.5595     0.0000    24.0000 </r>
       <r>     2.6077     0.0000    24.0000 </r>
      </set>
     </set>
    </array>
   </total>
  </dos>
 </calculation>
 <structure name="finalpos" >
  <crystal>
   <varray name="basis" >
    <v>      15.00000000       0.00000000       0.00000000 </v>
    <v>       0.00000000      15.00000000       0.00000000 </v>
    <v>       0.00000000       0.00000000      12.80000000 </v>
   </varray>
   <i name="volume">   2880.00000000 </i>
   <varray name="rec_basis" >
    <v>       0.06666667      -0.00000000       0.00000000 </v>
    <v>       0.00000000       0.06666667       0.00000000 </v>
    <v>      -0.00000000      -0.00000000       0.07812500 </v>
   </varray>
  </crystal>
  <varray name="positions" >
   <v>       0.00000000       0.00000000       0.00000000 </v>
   <v>       0.00000000       0.00000000       0.12500000 </v>
   <v>       0.00000000       0.00000000       0.25000000 </v>
   <v>       0.00000000       0.00000000       0.37500000 </v>
   <v>       0.00000000       0.00000000       0.50000000 </v>
   <v>       0.00000000       0.00000000       0.62500000 </v>
   <v>       0.00000000       0.00000000       0.75000000 </v>
   <v>       0.00000000       0.00000000       0.87500000 </v>
  </varray>
 </structure>
</modeling>
