   8   8   0   0
  0.6525000E+03  0.1500000E-08  0.1500000E-08  0.2320000E-08  0.5000000E-15
  1.000000000000000E-004
  CAR 
 unknown system                          
      2.14552675     -9.32701838  301     -6.67620588      1.00000000
     -9.327  0.0000E+00  0.0000E+00  0.0000E+00  0.0000E+00
     -9.289  0.0000E+00  0.0000E+00  0.0000E+00  0.0000E+00
     -9.251  0.0000E+00  0.0000E+00  0.0000E+00  0.0000E+00
     -9.212  0.0000E+00  0.0000E+00  0.0000E+00  0.0000E+00
     -9.174  0.0000E+00  0.0000E+00  0.0000E+00  0.0000E+00
     -9.136  0.0000E+00  0.0000E+00  0.0000E+00  0.0000E+00
     -9.098  0.0000E+00  0.0000E+00  0.0000E+00  0.0000E+00
     -9.059  0.0000E+00  0.0000E+00  0.0000E+00  0.0000E+00
     -9.021  0.0000E+00  0.0000E+00  0.0000E+00  0.0000E+00
     -8.983  0.0000E+00  0.0000E+00  0.0000E+00  0.0000E+00
     -8.945  0.0000E+00  0.0000E+00  0.0000E+00  0.0000E+00
     -8.906  0.0000E+00  0.0000E+00  0.0000E+00  0.0000E+00
     -8.868  0.0000E+00  0.0000E+00  0.0000E+00  0.0000E+00
     -8.830  0.0000E+00  0.0000E+00  0.0000E+00  0.0000E+00
     -8.792  0.0000E+00  0.0000E+00  0.0000E+00  0.0000E+00
     -8.753  0.0000E+00  0.0000E+00  0.0000E+00  0.0000E+00
     -8.715  0.0000E+00  0.0000E+00  0.0000E+00  0.0000E+00
     -8.677  0.0000E+00  0.0000E+00  0.0000E+00  0.0000E+00
     -8.639  0.0000E+00  0.0000E+00  0.0000E+00  0.0000E+00
     -8.600  0.0000E+00  0.0000E+00  0.0000E+00  0.0000E+00
     -8.562  0.0000E+00  0.0000E+00  0.0000E+00  0.0000E+00
     -8.524  0.0000E+00  0.0000E+00  0.0000E+00  0.0000E+00
     -8.486  0.5806E-14  0.5806E-14  0.2220E-15  0.2220E-15
     -8.447  0.5516E-13  0.5516E-13  0.2331E-14  0.2331E-14
     -8.409  0.4558E-12  0.4558E-12  0.1976E-13  0.1976E-13
     -8.371  0.3565E-11  0.3565E-11  0.1561E-12  0.1561E-12
     -8.333  0.2595E-10  0.2595E-10  0.1148E-11  0.1148E-11
     -8.294  0.1756E-09  0.1756E-09  0.7863E-11  0.7862E-11
     -8.256  0.1105E-08  0.1105E-08  0.5011E-10  0.5010E-10
     -8.218  0.6464E-08  0.6463E-08  0.2973E-09  0.2973E-09
     -8.180  0.3517E-07  0.3516E-07  0.1642E-08  0.1642E-08
     -8.142  0.1779E-06  0.1779E-06  0.8446E-08  0.8445E-08
     -8.103  0.8370E-06  0.8370E-06  0.4046E-07  0.4045E-07
     -8.065  0.3662E-05  0.3662E-05  0.1805E-06  0.1805E-06
     -8.027  0.1490E-04  0.1490E-04  0.7503E-06  0.7503E-06
     -7.989  0.5638E-04  0.5638E-04  0.2907E-05  0.2906E-05
     -7.950  0.1985E-03  0.1984E-03  0.1050E-04  0.1050E-04
     -7.912  0.6498E-03  0.6498E-03  0.3535E-04  0.3534E-04
     -7.874  0.1979E-02  0.1979E-02  0.1110E-03  0.1110E-03
     -7.836  0.5611E-02  0.5611E-02  0.3256E-03  0.3256E-03
     -7.797  0.1480E-01  0.1480E-01  0.8918E-03  0.8917E-03
     -7.759  0.3638E-01  0.3637E-01  0.2283E-02  0.2283E-02
     -7.721  0.8328E-01  0.8327E-01  0.5467E-02  0.5467E-02
     -7.683  0.1778E+00  0.1777E+00  0.1227E-01  0.1226E-01
     -7.644  0.3541E+00  0.3541E+00  0.2581E-01  0.2581E-01
     -7.606  0.6593E+00  0.6593E+00  0.5102E-01  0.5102E-01
     -7.568  0.1149E+01  0.1149E+01  0.9497E-01  0.9497E-01
     -7.530  0.1880E+01  0.1879E+01  0.1668E+00  0.1668E+00
     -7.491  0.2892E+01  0.2892E+01  0.2774E+00  0.2774E+00
     -7.453  0.4199E+01  0.4199E+01  0.4380E+00  0.4380E+00
     -7.415  0.5775E+01  0.5775E+01  0.6589E+00  0.6589E+00
     -7.377  0.7549E+01  0.7549E+01  0.9476E+00  0.9476E+00
     -7.338  0.9406E+01  0.9406E+01  0.1307E+01  0.1307E+01
     -7.300  0.1120E+02  0.1120E+02  0.1735E+01  0.1735E+01
     -7.262  0.1274E+02  0.1274E+02  0.2223E+01  0.2223E+01
     -7.224  0.1386E+02  0.1386E+02  0.2753E+01  0.2753E+01
     -7.185  0.1437E+02  0.1437E+02  0.3302E+01  0.3302E+01
     -7.147  0.1418E+02  0.1418E+02  0.3844E+01  0.3844E+01
     -7.109  0.1327E+02  0.1327E+02  0.4352E+01  0.4352E+01
     -7.071  0.1179E+02  0.1179E+02  0.4803E+01  0.4803E+01
     -7.033  0.9981E+01  0.9981E+01  0.5185E+01  0.5185E+01
     -6.994  0.8167E+01  0.8167E+01  0.5497E+01  0.5497E+01
     -6.956  0.6684E+01  0.6684E+01  0.5753E+01  0.5753E+01
     -6.918  0.5798E+01  0.5798E+01  0.5974E+01  0.5974E+01
     -6.880  0.5655E+01  0.5655E+01  0.6191E+01  0.6191E+01
     -6.841  0.6245E+01  0.6245E+01  0.6430E+01  0.6430E+01
     -6.803  0.7403E+01  0.7403E+01  0.6713E+01  0.6713E+01
     -6.765  0.8834E+01  0.8834E+01  0.7051E+01  0.7050E+01
     -6.727  0.1017E+02  0.1017E+02  0.7440E+01  0.7439E+01
     -6.688  0.1107E+02  0.1107E+02  0.7863E+01  0.7863E+01
     -6.650  0.1127E+02  0.1127E+02  0.8294E+01  0.8294E+01
     -6.612  0.1071E+02  0.1071E+02  0.8703E+01  0.8703E+01
     -6.574  0.9485E+01  0.9485E+01  0.9066E+01  0.9066E+01
     -6.535  0.7841E+01  0.7841E+01  0.9366E+01  0.9366E+01
     -6.497  0.6090E+01  0.6090E+01  0.9599E+01  0.9599E+01
     -6.459  0.4532E+01  0.4532E+01  0.9772E+01  0.9772E+01
     -6.421  0.3396E+01  0.3396E+01  0.9902E+01  0.9902E+01
     -6.382  0.2827E+01  0.2827E+01  0.1001E+02  0.1001E+02
     -6.344  0.2891E+01  0.2891E+01  0.1012E+02  0.1012E+02
     -6.306  0.3582E+01  0.3582E+01  0.1026E+02  0.1026E+02
     -6.268  0.4826E+01  0.4826E+01  0.1044E+02  0.1044E+02
     -6.229  0.6468E+01  0.6468E+01  0.1069E+02  0.1069E+02
     -6.191  0.8276E+01  0.8276E+01  0.1101E+02  0.1101E+02
     -6.153  0.9966E+01  0.9966E+01  0.1139E+02  0.1139E+02
     -6.115  0.1126E+02  0.1126E+02  0.1182E+02  0.1182E+02
     -6.076  0.1197E+02  0.1197E+02  0.1228E+02  0.1228E+02
     -6.038  0.1204E+02  0.1204E+02  0.1274E+02  0.1274E+02
     -6.000  0.1157E+02  0.1157E+02  0.1318E+02  0.1318E+02
     -5.962  0.1077E+02  0.1077E+02  0.1359E+02  0.1359E+02
     -5.923  0.9853E+01  0.9853E+01  0.1397E+02  0.1397E+02
     -5.885  0.8981E+01  0.8981E+01  0.1431E+02  0.1431E+02
     -5.847  0.8197E+01  0.8197E+01  0.1462E+02  0.1462E+02
     -5.809  0.7456E+01  0.7456E+01  0.1491E+02  0.1491E+02
     -5.771  0.6674E+01  0.6674E+01  0.1516E+02  0.1516E+02
     -5.732  0.5789E+01  0.5789E+01  0.1539E+02  0.1539E+02
     -5.694  0.4801E+01  0.4801E+01  0.1557E+02  0.1557E+02
     -5.656  0.3768E+01  0.3768E+01  0.1571E+02  0.1571E+02
     -5.618  0.2780E+01  0.2780E+01  0.1582E+02  0.1582E+02
     -5.579  0.1920E+01  0.1920E+01  0.1589E+02  0.1589E+02
     -5.541  0.1237E+01  0.1237E+01  0.1594E+02  0.1594E+02
     -5.503  0.7432E+00  0.7432E+00  0.1597E+02  0.1597E+02
     -5.465  0.4156E+00  0.4156E+00  0.1598E+02  0.1598E+02
     -5.426  0.2163E+00  0.2163E+00  0.1599E+02  0.1599E+02
     -5.388  0.1047E+00  0.1047E+00  0.1600E+02  0.1600E+02
     -5.350  0.4717E-01  0.4717E-01  0.1600E+02  0.1600E+02
     -5.312  0.1976E-01  0.1976E-01  0.1600E+02  0.1600E+02
     -5.273  0.7695E-02  0.7695E-02  0.1600E+02  0.1600E+02
     -5.235  0.2787E-02  0.2787E-02  0.1600E+02  0.1600E+02
     -5.197  0.9388E-03  0.9388E-03  0.1600E+02  0.1600E+02
     -5.159  0.2940E-03  0.2940E-03  0.1600E+02  0.1600E+02
     -5.120  0.8563E-04  0.8564E-04  0.1600E+02  0.1600E+02
     -5.082  0.2319E-04  0.2319E-04  0.1600E+02  0.1600E+02
     -5.044  0.5840E-05  0.5841E-05  0.1600E+02  0.1600E+02
     -5.006  0.1368E-05  0.1368E-05  0.1600E+02  0.1600E+02
     -4.967  0.2978E-06  0.2978E-06  0.1600E+02  0.1600E+02
     -4.929  0.6029E-07  0.6029E-07  0.1600E+02  0.1600E+02
     -4.891  0.1135E-07  0.1135E-07  0.1600E+02  0.1600E+02
     -4.853  0.1987E-08  0.1987E-08  0.1600E+02  0.1600E+02
     -4.814  0.3234E-09  0.3234E-09  0.1600E+02  0.1600E+02
     -4.776  0.4895E-10  0.4895E-10  0.1600E+02  0.1600E+02
     -4.738  0.6892E-11  0.6892E-11  0.1600E+02  0.1600E+02
     -4.700  0.8942E-12  0.8942E-12  0.1600E+02  0.1600E+02
     -4.662  0.1161E-12  0.1161E-12  0.1600E+02  0.1600E+02
     -4.623  0.1161E-13  0.1161E-13  0.1600E+02  0.1600E+02
     -4.585  0.0000E+00  0.0000E+00  0.1600E+02  0.1600E+02
     -4.547  0.0000E+00  0.0000E+00  0.1600E+02  0.1600E+02
     -4.509  0.0000E+00  0.0000E+00  0.1600E+02  0.1600E+02
     -4.470  0.0000E+00  0.0000E+00  0.1600E+02  0.1600E+02
     -4.432  0.0000E+00  0.0000E+00  0.1600E+02  0.1600E+02
     -4.394  0.0000E+00  0.0000E+00  0.1600E+02  0.1600E+02
     -4.356  0.0000E+00  0.0000E+00  0.1600E+02  0.1600E+02
     -4.317  0.0000E+00  0.0000E+00  0.1600E+02  0.1600E+02
     -4.279  0.0000E+00  0.0000E+00  0.1600E+02  0.1600E+02
     -4.241  0.0000E+00  0.0000E+00  0.1600E+02  0.1600E+02
     -4.203  0.0000E+00  0.0000E+00  0.1600E+02  0.1600E+02
     -4.164  0.0000E+00  0.0000E+00  0.1600E+02  0.1600E+02
     -4.126  0.0000E+00  0.0000E+00  0.1600E+02  0.1600E+02
     -4.088  0.0000E+00  0.0000E+00  0.1600E+02  0.1600E+02
     -4.050  0.0000E+00  0.0000E+00  0.1600E+02  0.1600E+02
     -4.011  0.0000E+00  0.0000E+00  0.1600E+02  0.1600E+02
     -3.973  0.0000E+00  0.0000E+00  0.1600E+02  0.1600E+02
     -3.935  0.0000E+00  0.0000E+00  0.1600E+02  0.1600E+02
     -3.897  0.0000E+00  0.0000E+00  0.1600E+02  0.1600E+02
     -3.858  0.0000E+00  0.0000E+00  0.1600E+02  0.1600E+02
     -3.820  0.0000E+00  0.0000E+00  0.1600E+02  0.1600E+02
     -3.782  0.0000E+00  0.0000E+00  0.1600E+02  0.1600E+02
     -3.744  0.0000E+00  0.0000E+00  0.1600E+02  0.1600E+02
     -3.705  0.0000E+00  0.0000E+00  0.1600E+02  0.1600E+02
     -3.667  0.0000E+00  0.0000E+00  0.1600E+02  0.1600E+02
     -3.629  0.0000E+00  0.0000E+00  0.1600E+02  0.1600E+02
     -3.591  0.0000E+00  0.0000E+00  0.1600E+02  0.1600E+02
     -3.553  0.0000E+00  0.0000E+00  0.1600E+02  0.1600E+02
     -3.514  0.0000E+00  0.0000E+00  0.1600E+02  0.1600E+02
     -3.476  0.0000E+00  0.0000E+00  0.1600E+02  0.1600E+02
     -3.438  0.0000E+00  0.0000E+00  0.1600E+02  0.1600E+02
     -3.400  0.0000E+00  0.0000E+00  0.1600E+02  0.1600E+02
     -3.361  0.0000E+00  0.0000E+00  0.1600E+02  0.1600E+02
     -3.323  0.0000E+00  0.0000E+00  0.1600E+02  0.1600E+02
     -3.285  0.0000E+00  0.0000E+00  0.1600E+02  0.1600E+02
     -3.247  0.0000E+00  0.0000E+00  0.1600E+02  0.1600E+02
     -3.208  0.0000E+00  0.0000E+00  0.1600E+02  0.1600E+02
     -3.170  0.0000E+00  0.0000E+00  0.1600E+02  0.1600E+02
     -3.132  0.0000E+00  0.0000E+00  0.1600E+02  0.1600E+02
     -3.094  0.0000E+00  0.0000E+00  0.1600E+02  0.1600E+02
     -3.055  0.0000E+00  0.0000E+00  0.1600E+02  0.1600E+02
     -3.017  0.0000E+00  0.0000E+00  0.1600E+02  0.1600E+02
     -2.979  0.0000E+00  0.0000E+00  0.1600E+02  0.1600E+02
     -2.941  0.0000E+00  0.0000E+00  0.1600E+02  0.1600E+02
     -2.902  0.0000E+00  0.0000E+00  0.1600E+02  0.1600E+02
     -2.864  0.0000E+00  0.0000E+00  0.1600E+02  0.1600E+02
     -2.826  0.0000E+00  0.0000E+00  0.1600E+02  0.1600E+02
     -2.788  0.0000E+00  0.0000E+00  0.1600E+02  0.1600E+02
     -2.749  0.0000E+00  0.0000E+00  0.1600E+02  0.1600E+02
     -2.711  0.0000E+00  0.0000E+00  0.1600E+02  0.1600E+02
     -2.673  0.0000E+00  0.0000E+00  0.1600E+02  0.1600E+02
     -2.635  0.0000E+00  0.0000E+00  0.1600E+02  0.1600E+02
     -2.596  0.0000E+00  0.0000E+00  0.1600E+02  0.1600E+02
     -2.558  0.0000E+00  0.0000E+00  0.1600E+02  0.1600E+02
     -2.520  0.0000E+00  0.0000E+00  0.1600E+02  0.1600E+02
     -2.482  0.0000E+00  0.0000E+00  0.1600E+02  0.1600E+02
     -2.443  0.0000E+00  0.0000E+00  0.1600E+02  0.1600E+02
     -2.405  0.0000E+00  0.0000E+00  0.1600E+02  0.1600E+02
     -2.367  0.0000E+00  0.0000E+00  0.1600E+02  0.1600E+02
     -2.329  0.0000E+00  0.0000E+00  0.1600E+02  0.1600E+02
     -2.291  0.0000E+00  0.0000E+00  0.1600E+02  0.1600E+02
     -2.252  0.0000E+00  0.0000E+00  0.1600E+02  0.1600E+02
     -2.214  0.0000E+00  0.0000E+00  0.1600E+02  0.1600E+02
     -2.176  0.0000E+00  0.0000E+00  0.1600E+02  0.1600E+02
     -2.138  0.0000E+00  0.0000E+00  0.1600E+02  0.1600E+02
     -2.099  0.0000E+00  0.0000E+00  0.1600E+02  0.1600E+02
     -2.061  0.0000E+00  0.0000E+00  0.1600E+02  0.1600E+02
     -2.023  0.0000E+00  0.0000E+00  0.1600E+02  0.1600E+02
     -1.985  0.0000E+00  0.0000E+00  0.1600E+02  0.1600E+02
     -1.946  0.0000E+00  0.0000E+00  0.1600E+02  0.1600E+02
     -1.908  0.0000E+00  0.0000E+00  0.1600E+02  0.1600E+02
     -1.870  0.0000E+00  0.0000E+00  0.1600E+02  0.1600E+02
     -1.832  0.0000E+00  0.0000E+00  0.1600E+02  0.1600E+02
     -1.793  0.0000E+00  0.0000E+00  0.1600E+02  0.1600E+02
     -1.755  0.0000E+00  0.0000E+00  0.1600E+02  0.1600E+02
     -1.717  0.0000E+00  0.0000E+00  0.1600E+02  0.1600E+02
     -1.679  0.0000E+00  0.0000E+00  0.1600E+02  0.1600E+02
     -1.640  0.0000E+00  0.0000E+00  0.1600E+02  0.1600E+02
     -1.602  0.0000E+00  0.0000E+00  0.1600E+02  0.1600E+02
     -1.564  0.0000E+00  0.0000E+00  0.1600E+02  0.1600E+02
     -1.526  0.0000E+00  0.0000E+00  0.1600E+02  0.1600E+02
     -1.487  0.0000E+00  0.0000E+00  0.1600E+02  0.1600E+02
     -1.449  0.0000E+00  0.0000E+00  0.1600E+02  0.1600E+02
     -1.411  0.0000E+00  0.0000E+00  0.1600E+02  0.1600E+02
     -1.373  0.0000E+00  0.0000E+00  0.1600E+02  0.1600E+02
     -1.334  0.0000E+00  0.0000E+00  0.1600E+02  0.1600E+02
     -1.296  0.2903E-14  0.2903E-14  0.1600E+02  0.1600E+02
     -1.258  0.2613E-13  0.2613E-13  0.1600E+02  0.1600E+02
     -1.220  0.2323E-12  0.2235E-12  0.1600E+02  0.1600E+02
     -1.182  0.1870E-11  0.1814E-11  0.1600E+02  0.1600E+02
     -1.143  0.1392E-10  0.1352E-10  0.1600E+02  0.1600E+02
     -1.105  0.9661E-10  0.9392E-10  0.1600E+02  0.1600E+02
     -1.067  0.6237E-09  0.6070E-09  0.1600E+02  0.1600E+02
     -1.029  0.3745E-08  0.3649E-08  0.1600E+02  0.1600E+02
     -0.990  0.2092E-07  0.2041E-07  0.1600E+02  0.1600E+02
     -0.952  0.1088E-06  0.1062E-06  0.1600E+02  0.1600E+02
     -0.914  0.5262E-06  0.5145E-06  0.1600E+02  0.1600E+02
     -0.876  0.2370E-05  0.2319E-05  0.1600E+02  0.1600E+02
     -0.837  0.9933E-05  0.9732E-05  0.1600E+02  0.1600E+02
     -0.799  0.3877E-04  0.3803E-04  0.1600E+02  0.1600E+02
     -0.761  0.1409E-03  0.1384E-03  0.1600E+02  0.1600E+02
     -0.723  0.4774E-03  0.4693E-03  0.1600E+02  0.1600E+02
     -0.684  0.1507E-02  0.1483E-02  0.1600E+02  0.1600E+02
     -0.646  0.4435E-02  0.4371E-02  0.1600E+02  0.1600E+02
     -0.608  0.1218E-01  0.1201E-01  0.1600E+02  0.1600E+02
     -0.570  0.3121E-01  0.3082E-01  0.1600E+02  0.1600E+02
     -0.531  0.7468E-01  0.7385E-01  0.1600E+02  0.1600E+02
     -0.493  0.1670E+00  0.1653E+00  0.1601E+02  0.1601E+02
     -0.455  0.3493E+00  0.3461E+00  0.1602E+02  0.1602E+02
     -0.417  0.6835E+00  0.6782E+00  0.1605E+02  0.1605E+02
     -0.378  0.1253E+01  0.1244E+01  0.1610E+02  0.1610E+02
     -0.340  0.2153E+01  0.2140E+01  0.1618E+02  0.1618E+02
     -0.302  0.3471E+01  0.3454E+01  0.1631E+02  0.1631E+02
     -0.264  0.5254E+01  0.5233E+01  0.1651E+02  0.1651E+02
     -0.225  0.7476E+01  0.7452E+01  0.1680E+02  0.1680E+02
     -0.187  0.1001E+02  0.9988E+01  0.1718E+02  0.1718E+02
     -0.149  0.1263E+02  0.1261E+02  0.1767E+02  0.1766E+02
     -0.111  0.1505E+02  0.1503E+02  0.1824E+02  0.1824E+02
     -0.072  0.1695E+02  0.1694E+02  0.1889E+02  0.1888E+02
     -0.034  0.1809E+02  0.1809E+02  0.1958E+02  0.1958E+02
      0.004  0.1836E+02  0.1836E+02  0.2028E+02  0.2028E+02
      0.042  0.1776E+02  0.1777E+02  0.2096E+02  0.2096E+02
      0.080  0.1644E+02  0.1645E+02  0.2159E+02  0.2159E+02
      0.119  0.1459E+02  0.1461E+02  0.2215E+02  0.2214E+02
      0.157  0.1244E+02  0.1246E+02  0.2263E+02  0.2262E+02
      0.195  0.1020E+02  0.1022E+02  0.2302E+02  0.2301E+02
      0.233  0.8019E+01  0.8040E+01  0.2332E+02  0.2332E+02
      0.272  0.6037E+01  0.6057E+01  0.2355E+02  0.2355E+02
      0.310  0.4334E+01  0.4352E+01  0.2372E+02  0.2372E+02
      0.348  0.2955E+01  0.2970E+01  0.2383E+02  0.2383E+02
      0.386  0.1906E+01  0.1918E+01  0.2390E+02  0.2390E+02
      0.425  0.1158E+01  0.1167E+01  0.2395E+02  0.2395E+02
      0.463  0.6613E+00  0.6667E+00  0.2397E+02  0.2397E+02
      0.501  0.3538E+00  0.3571E+00  0.2399E+02  0.2399E+02
      0.539  0.1770E+00  0.1789E+00  0.2399E+02  0.2399E+02
      0.578  0.8272E-01  0.8367E-01  0.2400E+02  0.2400E+02
      0.616  0.3605E-01  0.3650E-01  0.2400E+02  0.2400E+02
      0.654  0.1464E-01  0.1484E-01  0.2400E+02  0.2400E+02
      0.692  0.5540E-02  0.5622E-02  0.2400E+02  0.2400E+02
      0.731  0.1951E-02  0.1982E-02  0.2400E+02  0.2400E+02
      0.769  0.6396E-03  0.6505E-03  0.2400E+02  0.2400E+02
      0.807  0.1951E-03  0.1986E-03  0.2400E+02  0.2400E+02
      0.845  0.5536E-04  0.5642E-04  0.2400E+02  0.2400E+02
      0.884  0.1461E-04  0.1491E-04  0.2400E+02  0.2400E+02
      0.922  0.3587E-05  0.3663E-05  0.2400E+02  0.2400E+02
      0.960  0.8188E-06  0.8372E-06  0.2400E+02  0.2400E+02
      0.998  0.1738E-06  0.1779E-06  0.2400E+02  0.2400E+02
      1.037  0.3432E-07  0.3517E-07  0.2400E+02  0.2400E+02
      1.075  0.6302E-08  0.6464E-08  0.2400E+02  0.2400E+02
      1.113  0.1076E-08  0.1105E-08  0.2400E+02  0.2400E+02
      1.151  0.1708E-09  0.1756E-09  0.2400E+02  0.2400E+02
      1.189  0.2521E-10  0.2594E-10  0.2400E+02  0.2400E+02
      1.228  0.3461E-11  0.3565E-11  0.2400E+02  0.2400E+02
      1.266  0.4413E-12  0.4587E-12  0.2400E+02  0.2400E+02
      1.304  0.5226E-13  0.5226E-13  0.2400E+02  0.2400E+02
      1.342  0.5806E-14  0.5806E-14  0.2400E+02  0.2400E+02
      1.381  0.0000E+00  0.0000E+00  0.2400E+02  0.2400E+02
      1.419  0.0000E+00  0.0000E+00  0.2400E+02  0.2400E+02
      1.457  0.0000E+00  0.0000E+00  0.2400E+02  0.2400E+02
      1.495  0.0000E+00  0.0000E+00  0.2400E+02  0.2400E+02
      1.534  0.0000E+00  0.0000E+00  0.2400E+02  0.2400E+02
      1.572  0.0000E+00  0.0000E+00  0.2400E+02  0.2400E+02
      1.610  0.0000E+00  0.0000E+00  0.2400E+02  0.2400E+02
      1.648  0.0000E+00  0.0000E+00  0.2400E+02  0.2400E+02
      1.687  0.0000E+00  0.0000E+00  0.2400E+02  0.2400E+02
      1.725  0.0000E+00  0.0000E+00  0.2400E+02  0.2400E+02
      1.763  0.0000E+00  0.0000E+00  0.2400E+02  0.2400E+02
      1.801  0.0000E+00  0.0000E+00  0.2400E+02  0.2400E+02
      1.840  0.0000E+00  0.0000E+00  0.2400E+02  0.2400E+02
      1.878  0.0000E+00  0.0000E+00  0.2400E+02  0.2400E+02
      1.916  0.0000E+00  0.0000E+00  0.2400E+02  0.2400E+02
      1.954  0.0000E+00  0.0000E+00  0.2400E+02  0.2400E+02
      1.993  0.0000E+00  0.0000E+00  0.2400E+02  0.2400E+02
      2.031  0.0000E+00  0.0000E+00  0.2400E+02  0.2400E+02
      2.069  0.0000E+00  0.0000E+00  0.2400E+02  0.2400E+02
      2.107  0.0000E+00  0.0000E+00  0.2400E+02  0.2400E+02
      2.146  0.0000E+00  0.0000E+00  0.2400E+02  0.2400E+02
