    8    8    1    2
  0.6525000E+03  0.1500000E-08  0.1500000E-08  0.2320000E-08  0.5000000E-15
  1.000000000000000E-004
  CAR 
 unknown system                          
      8      1     12
 
  0.0000000E+00  0.0000000E+00  0.0000000E+00  0.1000000E+01
    1       -7.327018     -7.327016   0.999998   0.999998
    2       -7.151349     -7.151347   0.999610   0.999610
    3       -7.151344     -7.151342   0.999610   0.999610
    4       -6.676351     -6.676349   0.500403   0.500403
    5       -6.676328     -6.676326   0.500338   0.500338
    6       -6.095884     -6.095882   0.000020   0.000020
    7       -6.095872     -6.095870   0.000020   0.000020
    8       -5.807658     -5.807657   0.000000   0.000000
    9       -0.125239     -0.124666   0.000000   0.000000
   10       -0.025111     -0.024865   0.000000   0.000000
   11       -0.025111     -0.024865   0.000000   0.000000
   12        0.144963      0.145527   0.000000   0.000000
