       N       E                     dE             d eps       ncg     rms          rms(c)
DAV:   1     0.215589889298E+02    0.21559E+02   -0.71624E+02    48   0.167E+02
DAV:   2    -0.103697580184E+01   -0.22596E+02   -0.22438E+02    84   0.514E+01
DAV:   3    -0.352369714265E+01   -0.24867E+01   -0.23470E+01    60   0.196E+01
DAV:   4    -0.364157476805E+01   -0.11788E+00   -0.11357E+00    56   0.426E+00
DAV:   5    -0.364306655573E+01   -0.14918E-02   -0.14911E-02    60   0.410E-01    0.121E+00
DAV:   6    -0.364304090686E+01    0.25649E-04   -0.12189E-02    56   0.465E-01    0.697E-01
DAV:   7    -0.366006709275E+01   -0.17026E-01   -0.22096E-02    48   0.612E-01    0.656E-02
DAV:   8    -0.366182667110E+01   -0.17596E-02   -0.13552E-03    56   0.168E-01    0.217E-02
DAV:   9    -0.366199537727E+01   -0.16871E-03   -0.30963E-05    56   0.276E-02    0.565E-03
DAV:  10    -0.366205352780E+01   -0.58151E-04   -0.40491E-06    56   0.857E-03    0.289E-03
DAV:  11    -0.366214023107E+01   -0.86703E-04   -0.10062E-05    56   0.110E-02    0.161E-03
DAV:  12    -0.366217002955E+01   -0.29798E-04   -0.23393E-06    56   0.535E-03    0.119E-03
DAV:  13    -0.366218936576E+01   -0.19336E-04   -0.34512E-06    48   0.572E-03    0.797E-04
DAV:  14    -0.366219402395E+01   -0.46582E-05   -0.14362E-07    36   0.177E-03    0.339E-04
DAV:  15    -0.366220191050E+01   -0.78865E-05   -0.21874E-07    32   0.158E-03    0.249E-04
DAV:  16    -0.366220761491E+01   -0.57044E-05   -0.30797E-07    32   0.174E-03    0.108E-04
DAV:  17    -0.366220860684E+01   -0.99193E-06   -0.33612E-08    32   0.615E-04
   1 F= -.36622086E+01 E0= -.35489451E+01  d E =-.226527E+00  mag=     0.0000
