 vasp.5.4.4.18Apr17-6-g9f103f2a35 (build Aug 24 2024 05:40:03) complex          
  
 executed on           IFC22_IMPI date 2024.11.22  21:49:25
 running on    4 total cores
 distrk:  each k-point on    4 cores,    1 groups
 distr:  one band on NCORES_PER_BAND=   1 cores,    4 groups


--------------------------------------------------------------------------------------------------------


 INCAR:
 POTCAR:    PAW_PBE H 15Jun2001                   
 POTCAR:    PAW_PBE H 15Jun2001                   
   VRHFIN =H: ultrasoft test                                                    
   LEXCH  = PE                                                                  
   EATOM  =    12.4884 eV,    0.9179 Ry                                         
                                                                                
   TITEL  = PAW_PBE H 15Jun2001                                                 
   LULTRA =        F    use ultrasoft PP ?                                      
   IUNSCR =        0    unscreen: 0-lin 1-nonlin 2-no                           
   RPACOR =    0.000    partial core radius                                     
   POMASS =    1.000; ZVAL   =    1.000    mass and valenz                      
   RCORE  =    1.100    outmost cutoff radius                                   
   RWIGS  =    0.700; RWIGS  =    0.370    wigner-seitz radius (au A)           
   ENMAX  =  250.000; ENMIN  =  200.000 eV                                      
   RCLOC  =    0.701    cutoff for local pot                                    
   LCOR   =        T    correct aug charges                                     
   LPAW   =        T    paw PP                                                  
   EAUG   =  400.000                                                            
   RMAX   =    1.123    core radius for proj-oper                               
   RAUG   =    1.200    factor for augmentation sphere                          
   RDEP   =    1.112    radius for radial grids                                 
   RDEPT  =    0.926    core radius for aug-charge                              
                                                                                
   Atomic configuration                                                         
    2 entries                                                                   
     n  l   j            E        occ.                                          
     1  0  0.50        -6.4927   1.0000                                         
     2  1  0.50        -3.4015   0.0000                                         
   Description                                                                  
     l       E           TYP  RCUT    TYP  RCUT                                 
     0     -6.4927494     23  1.100                                             
     0      6.8029130     23  1.100                                             
     1     -4.0817478     23  1.100                                             
  local pseudopotential read in
  atomic valenz-charges read in
  non local Contribution for L=           0  read in
    real space projection operators read in
  non local Contribution for L=           0  read in
    real space projection operators read in
  non local Contribution for L=           1  read in
    real space projection operators read in
    PAW grid and wavefunctions read in
 
   number of l-projection  operators is LMAX  =           3
   number of lm-projection operators is LMMAX =           5
 
  PAW_PBE H 15Jun2001                   :
 energy of atom  1       EATOM=  -12.4884
 kinetic energy error for atom=    0.0426 (will be added to EATOM!!)
 
 
 POSCAR: H8                                      
  positions in direct lattice
  No initial velocities read in
 exchange correlation table for  LEXCH =        8
   RHO(1)=    0.500       N(1)  =     2000
   RHO(2)=  100.500       N(2)  =     4000
 


--------------------------------------------------------------------------------------------------------


 ion  position               nearest neighbor table
   1  0.000  0.000  0.000-
   2  0.000  0.000  0.125-
   3  0.000  0.000  0.250-
   4  0.000  0.000  0.375-
   5  0.000  0.000  0.500-
   6  0.000  0.000  0.625-
   7  0.000  0.000  0.750-
   8  0.000  0.000  0.875-
 
  LATTYP: Found a simple tetragonal cell.
 ALAT       =    15.0000000000
 C/A-ratio  =     1.5466666667
  
  Lattice vectors:
  
 A1 = (  15.0000000000,   0.0000000000,   0.0000000000)
 A2 = (   0.0000000000,  15.0000000000,   0.0000000000)
 A3 = (   0.0000000000,   0.0000000000,  23.2000000000)


Analysis of symmetry for initial positions (statically):
=====================================================================
 Subroutine PRICEL returns following result:
 
  LATTYP: Found a simple tetragonal cell.
 ALAT       =    15.0000000000
 C/A-ratio  =     0.1933333333
  
  Lattice vectors:
  
 A1 = (  15.0000000000,   0.0000000000,   0.0000000000)
 A2 = (   0.0000000000,  15.0000000000,   0.0000000000)
 A3 = (   0.0000000000,   0.0000000000,   2.9000000000)
 
   8 primitive cells build up your supercell.
 

 Routine SETGRP: Setting up the symmetry group for a 
 simple tetragonal supercell.


 Subroutine GETGRP returns: Found 16 space group operations
 (whereof 16 operations were pure point group operations)
 out of a pool of 16 trial point group operations.


The static configuration has the point symmetry D_4h.


Analysis of symmetry for dynamics (positions and initial velocities):
=====================================================================
 Subroutine PRICEL returns following result:
 
  LATTYP: Found a simple tetragonal cell.
 ALAT       =    15.0000000000
 C/A-ratio  =     0.1933333333
  
  Lattice vectors:
  
 A1 = (  15.0000000000,   0.0000000000,   0.0000000000)
 A2 = (   0.0000000000,  15.0000000000,   0.0000000000)
 A3 = (   0.0000000000,   0.0000000000,   2.9000000000)
 
   8 primitive cells build up your supercell.
 

 Routine SETGRP: Setting up the symmetry group for a 
 simple tetragonal supercell.


 Subroutine GETGRP returns: Found 16 space group operations
 (whereof 16 operations were pure point group operations)
 out of a pool of 16 trial point group operations.


The dynamic configuration has the point symmetry D_4h.


Analysis of structural, dynamic, and magnetic symmetry:
=====================================================================
 Subroutine PRICEL returns following result:
 
  LATTYP: Found a simple tetragonal cell.
 ALAT       =    15.0000000000
 C/A-ratio  =     0.1933333333
  
  Lattice vectors:
  
 A1 = (  15.0000000000,   0.0000000000,   0.0000000000)
 A2 = (   0.0000000000,  15.0000000000,   0.0000000000)
 A3 = (   0.0000000000,   0.0000000000,   2.9000000000)
 
   8 primitive cells build up your supercell.
 

 Routine SETGRP: Setting up the symmetry group for a 
 simple tetragonal supercell.


 Subroutine GETGRP returns: Found 16 space group operations
 (whereof 16 operations were pure point group operations)
 out of a pool of 16 trial point group operations.


The magnetic configuration has the point symmetry D_4h.


 Subroutine INISYM returns: Found 16 space group operations
 (whereof 16 operations are pure point group operations),
 and found     8 'primitive' translations

 
 
 KPOINTS: Automatic kpoint scheme                 

Automatic generation of k-mesh.
Space group operators:
 irot       det(A)        alpha          n_x          n_y          n_z        tau_x        tau_y        tau_z
    1     1.000000     0.000000     1.000000     0.000000     0.000000     0.000000     0.000000     0.000000
    2    -1.000000     0.000000     1.000000     0.000000     0.000000     0.000000     0.000000     0.000000
    3     1.000000    90.000000     0.000000     0.000000    -1.000000     0.000000     0.000000     0.000000
    4    -1.000000    90.000000     0.000000     0.000000    -1.000000     0.000000     0.000000     0.000000
    5     1.000000   180.000000    -0.000000    -0.000000     1.000000     0.000000     0.000000     0.000000
    6    -1.000000   180.000000    -0.000000    -0.000000     1.000000     0.000000     0.000000     0.000000
    7     1.000000    90.000000    -0.000000    -0.000000     1.000000     0.000000     0.000000     0.000000
    8    -1.000000    90.000000    -0.000000    -0.000000     1.000000     0.000000     0.000000     0.000000
    9     1.000000   180.000000     0.000000     1.000000     0.000000     0.000000     0.000000     0.000000
   10    -1.000000   180.000000     0.000000     1.000000     0.000000     0.000000     0.000000     0.000000
   11     1.000000   180.000000     0.707107     0.707107     0.000000     0.000000     0.000000     0.000000
   12    -1.000000   180.000000     0.707107     0.707107     0.000000     0.000000     0.000000     0.000000
   13     1.000000   180.000000     1.000000    -0.000000     0.000000     0.000000     0.000000     0.000000
   14    -1.000000   180.000000     1.000000    -0.000000     0.000000     0.000000     0.000000     0.000000
   15     1.000000   180.000000     0.707107    -0.707107     0.000000     0.000000     0.000000     0.000000
   16    -1.000000   180.000000     0.707107    -0.707107     0.000000     0.000000     0.000000     0.000000
 
 Subroutine IBZKPT returns following result:
 ===========================================
 
 Found      1 irreducible k-points:
 
 Following reciprocal coordinates:
            Coordinates               Weight
  0.000000  0.000000  0.000000      1.000000
 
 Following cartesian coordinates:
            Coordinates               Weight
  0.000000  0.000000  0.000000      1.000000
 


--------------------------------------------------------------------------------------------------------




 Dimension of arrays:
   k-points           NKPTS =      1   k-points in BZ     NKDIM =      1   number of bands    NBANDS=     12
   number of dos      NEDOS =    301   number of ions     NIONS =      8
   non local maximal  LDIM  =      3   non local SUM 2l+1 LMDIM =      5
   total plane-waves  NPLWV = 401408
   max r-space proj   IRMAX =      1   max aug-charges    IRDMAX=    573
   dimension x,y,z NGX =    64 NGY =   64 NGZ =   98
   dimension x,y,z NGXF=   128 NGYF=  128 NGZF=  196
   support grid    NGXF=   128 NGYF=  128 NGZF=  196
   ions per type =               8
   NGX,Y,Z   is equivalent  to a cutoff of   7.09,  7.09,  7.02 a.u.
   NGXF,Y,Z  is equivalent  to a cutoff of  14.19, 14.19, 14.04 a.u.

 SYSTEM =  unknown system                          
 POSCAR =  H8                                      

 Startparameter for this run:
   NWRITE =      2    write-flag & timer
   PREC   = normal    normal or accurate (medium, high low for compatibility)
   ISTART =      0    job   : 0-new  1-cont  2-samecut
   ICHARG =      2    charge: 1-file 2-atom 10-const
   ISPIN  =      2    spin polarized calculation?
   LNONCOLLINEAR =      F non collinear calculations
   LSORBIT =      F    spin-orbit coupling
   INIWAV =      1    electr: 0-lowe 1-rand  2-diag
   LASPH  =      F    aspherical Exc in radial PAW
   METAGGA=      F    non-selfconsistent MetaGGA calc.

 Electronic Relaxation 1
   ENCUT  =  300.0 eV  22.05 Ry    4.70 a.u.  21.18 21.18 32.76*2*pi/ulx,y,z
   ENINI  =  300.0     initial cutoff
   ENAUG  =  400.0 eV  augmentation charge cutoff
   NELM   =    100;   NELMIN=  2; NELMDL= -5     # of ELM steps 
   EDIFF  = 0.1E-05   stopping-criterion for ELM
   LREAL  =      F    real-space projection
   NLSPLINE    = F    spline interpolate recip. space projectors
   LCOMPAT=      F    compatible to vasp.4.4
   GGA_COMPAT  = T    GGA compatible to vasp.4.4-vasp.4.6
   LMAXPAW     = -100 max onsite density
   LMAXMIX     =    2 max onsite mixed and CHGCAR
   VOSKOWN=      0    Vosko Wilk Nusair interpolation
   ROPT   =    0.00000
 Ionic relaxation
   EDIFFG = 0.1E-04   stopping-criterion for IOM
   NSW    =      0    number of steps for IOM
   NBLOCK =      1;   KBLOCK =      1    inner block; outer block 
   IBRION =     -1    ionic relax: 0-MD 1-quasi-New 2-CG
   NFREE  =      0    steps in history (QN), initial steepest desc. (CG)
   ISIF   =      2    stress and relaxation
   IWAVPR =     10    prediction:  0-non 1-charg 2-wave 3-comb
   ISYM   =      2    0-nonsym 1-usesym 2-fastsym
   LCORR  =      T    Harris-Foulkes like correction to forces

   POTIM  = 0.5000    time-step for ionic-motion
   TEIN   =    0.0    initial temperature
   TEBEG  =    0.0;   TEEND  =   0.0 temperature during run
   SMASS  =  -3.00    Nose mass-parameter (am)
   estimated Nose-frequenzy (Omega)   =  0.10E-29 period in steps =****** mass=  -0.514E-26a.u.
   SCALEE = 1.0000    scale energy and forces
   NPACO  =    256;   APACO  = 16.0  distance and # of slots for P.C.
   PSTRESS=    0.0 pullay stress

  Mass of Ions in am
   POMASS =   1.00
  Ionic Valenz
   ZVAL   =   1.00
  Atomic Wigner-Seitz radii
   RWIGS  =  -1.00
  virtual crystal weights 
   VCA    =   1.00
   NELECT =       8.0000    total number of electrons
   NUPDOWN=       0.0000    fix difference up-down

 DOS related values:
   EMIN   =  10.00;   EMAX   =-10.00  energy-range for DOS
   EFERMI =   0.00
   ISMEAR =     0;   SIGMA  =   0.20  broadening in eV -4-tet -1-fermi 0-gaus

 Electronic relaxation 2 (details)
   IALGO  =     38    algorithm
   LDIAG  =      T    sub-space diagonalisation (order eigenvalues)
   LSUBROT=      F    optimize rotation matrix (better conditioning)
   TURBO    =      0    0=normal 1=particle mesh
   IRESTART =      0    0=no restart 2=restart with 2 vectors
   NREBOOT  =      0    no. of reboots
   NMIN     =      0    reboot dimension
   EREF     =   0.00    reference energy to select bands
   IMIX   =      4    mixing-type and parameters
     AMIX     =   0.40;   BMIX     =  1.00
     AMIX_MAG =   1.60;   BMIX_MAG =  1.00
     AMIN     =   0.10
     WC   =   100.;   INIMIX=   1;  MIXPRE=   1;  MAXMIX= -45

 Intra band minimization:
   WEIMIN = 0.0000     energy-eigenvalue tresh-hold
   EBREAK =  0.21E-07  absolut break condition
   DEPER  =   0.30     relativ break condition  

   TIME   =   0.40     timestep for ELM

  volume/ion in A,a.u.               =     652.50      4403.29
  Fermi-wavevector in a.u.,A,eV,Ry     =   0.188748  0.356681  0.484716  0.035626
  Thomas-Fermi vector in A             =   0.926391
 
 Write flags
   LWAVE        =      F    write WAVECAR
   LDOWNSAMPLE  =      F    k-point downsampling of WAVECAR
   LCHARG       =      F    write CHGCAR
   LVTOT        =      F    write LOCPOT, total local potential
   LVHAR        =      F    write LOCPOT, Hartree potential only
   LELF         =      F    write electronic localiz. function (ELF)
   LORBIT       =      0    0 simple, 1 ext, 2 COOP (PROOUT), +10 PAW based schemes


 Dipole corrections
   LMONO  =      F    monopole corrections only (constant potential shift)
   LDIPOL =      F    correct potential (dipole corrections)
   IDIPOL =      0    1-x, 2-y, 3-z, 4-all directions 
   EPSILON=  1.0000000 bulk dielectric constant

 Exchange correlation treatment:
   GGA     =    --    GGA type
   LEXCH   =     8    internal setting for exchange type
   VOSKOWN=      0    Vosko Wilk Nusair interpolation
   LHFCALC =     F    Hartree Fock is set to
   LHFONE  =     F    Hartree Fock one center treatment
   AEXX    =    0.0000 exact exchange contribution

 Linear response parameters
   LEPSILON=     F    determine dielectric tensor
   LRPA    =     F    only Hartree local field effects (RPA)
   LNABLA  =     F    use nabla operator in PAW spheres
   LVEL    =     F    velocity operator in full k-point grid
   LINTERFAST=   F  fast interpolation
   KINTER  =     0    interpolate to denser k-point grid
   CSHIFT  =0.1000    complex shift for real part using Kramers Kronig
   OMEGAMAX=  -1.0    maximum frequency
   DEG_THRESHOLD= 0.2000000E-02 threshold for treating states as degnerate
   RTIME   =   -0.100 relaxation time in fs
  (WPLASMAI=    0.000 imaginary part of plasma frequency in eV, 0.658/RTIME)
   DFIELD  = 0.0000000 0.0000000 0.0000000 field for delta impulse in time
 
 Orbital magnetization related:
   ORBITALMAG=     F  switch on orbital magnetization
   LCHIMAG   =     F  perturbation theory with respect to B field
   DQ        =  0.001000  dq finite difference perturbation B field
   LLRAUG    =     F  two centre corrections for induced B field



--------------------------------------------------------------------------------------------------------


 Static calculation
 charge density and potential will be updated during run
 spin polarized calculation
 Variant of blocked Davidson
 Davidson routine will perform the subspace rotation
 perform sub-space diagonalisation
    after iterative eigenvector-optimisation
 modified Broyden-mixing scheme, WC =      100.0
 initial mixing is a Kerker type mixing with AMIX =  0.4000 and BMIX =      1.0000
 Hartree-type preconditioning will be used
 using additional bands            8
 reciprocal scheme for non local part
 calculate Harris-corrections to forces 
   (improved forces if not selfconsistent)
 use gradient corrections 
 use of overlap-Matrix (Vanderbilt PP)
 Gauss-broadening in eV      SIGMA  =   0.20


--------------------------------------------------------------------------------------------------------


  energy-cutoff  :      300.00
  volume of cell :     5220.00
      direct lattice vectors                 reciprocal lattice vectors
    15.000000000  0.000000000  0.000000000     0.066666667 -0.000000000  0.000000000
     0.000000000 15.000000000  0.000000000     0.000000000  0.066666667  0.000000000
     0.000000000  0.000000000 23.200000000    -0.000000000 -0.000000000  0.043103448

  length of vectors
    15.000000000 15.000000000 23.200000000     0.066666667  0.066666667  0.043103448


 
 k-points in units of 2pi/SCALE and weight: Automatic kpoint scheme                 
   0.00000000  0.00000000  0.00000000       1.000
 
 k-points in reciprocal lattice and weights: Automatic kpoint scheme                 
   0.00000000  0.00000000  0.00000000       1.000
 
 position of ions in fractional coordinates (direct lattice) 
   0.00000000  0.00000000  0.00000000
   0.00000000  0.00000000  0.12500000
   0.00000000  0.00000000  0.25000000
   0.00000000  0.00000000  0.37500000
   0.00000000  0.00000000  0.50000000
   0.00000000  0.00000000  0.62500000
   0.00000000  0.00000000  0.75000000
   0.00000000  0.00000000  0.87500000
 
 position of ions in cartesian coordinates  (Angst):
   0.00000000  0.00000000  0.00000000
   0.00000000  0.00000000  2.90000000
   0.00000000  0.00000000  5.80000000
   0.00000000  0.00000000  8.70000000
   0.00000000  0.00000000 11.60000000
   0.00000000  0.00000000 14.50000000
   0.00000000  0.00000000 17.40000000
   0.00000000  0.00000000 20.30000000
 


--------------------------------------------------------------------------------------------------------


 k-point  1 :   0.0000 0.0000 0.0000  plane waves:   61589

 maximum and minimum number of plane-waves per node :     61589    61589

 maximum number of plane-waves:     61589
 maximum index in each direction: 
   IXMAX=   21   IYMAX=   21   IZMAX=   32
   IXMIN=  -21   IYMIN=  -21   IZMIN=  -32


 serial   3D FFT for wavefunctions
 parallel 3D FFT for charge:
    minimum data exchange during FFTs selected (reduces bandwidth)


 total amount of memory used by VASP MPI-rank0   165604. kBytes
=======================================================================

   base      :      30000. kBytes
   nonl-proj :      10347. kBytes
   fftplans  :      28817. kBytes
   grid      :      90505. kBytes
   one-center:         19. kBytes
   wavefun   :       5916. kBytes
 
     INWAV:  cpu time    0.0000: real time    0.0000
 Broyden mixing: mesh for mixing (old mesh)
   NGX = 43   NGY = 43   NGZ = 65
  (NGX  =128   NGY  =128   NGZ  =196)
  gives a total of 120185 points

 initial charge density was supplied:
 charge density of overlapping atoms calculated
 number of electron       8.0000000 magnetization       0.0000000
 keeping initial charge density in first step


--------------------------------------------------------------------------------------------------------


 Maximum index for augmentation-charges           84 (set IRDMAX)


--------------------------------------------------------------------------------------------------------


 First call to EWALD:  gamma=   0.102
 Maximum number of real-space cells 3x 3x 2
 Maximum number of reciprocal cells 2x 2x 4

    FEWALD:  cpu time    0.0016: real time    0.0016


--------------------------------------- Iteration      1(   1)  ---------------------------------------


    POTLOK:  cpu time    1.2423: real time    1.2419
    SETDIJ:  cpu time    0.0130: real time    0.0130
     EDDAV:  cpu time    0.8189: real time    0.8186
       DOS:  cpu time    0.0003: real time    0.0003
    --------------------------------------------
      LOOP:  cpu time    2.0745: real time    2.0738

 eigenvalue-minimisations  :    48
 total energy-change (2. order) : 0.2155899E+02  (-0.7162356E+02)
 number of electron       8.0000000 magnetization       0.0000000
 augmentation part        8.0000000 magnetization       0.0000000

 Free energy of the ion-electron system (eV)
  ---------------------------------------------------
  alpha Z        PSCENC =         0.02986872
  Ewald energy   TEWEN  =         8.61504491
  -Hartree energ DENC   =       -71.88717940
  -exchange      EXHF   =         0.00000000
  -V(xc)+E(xc)   XCENC  =        15.20313178
  PAW double counting   =        17.07221949      -17.14324176
  entropy T*S    EENTRO =        -0.00000122
  eigenvalues    EBANDS =       -29.89705667
  atomic energy  EATOM  =        99.56620307
  Solvation  Ediel_sol  =         0.00000000
  ---------------------------------------------------
  free energy    TOTEN  =        21.55898893 eV

  energy without entropy =       21.55899015  energy(sigma->0) =       21.55898954


--------------------------------------------------------------------------------------------------------




--------------------------------------- Iteration      1(   2)  ---------------------------------------


     EDDAV:  cpu time    1.2429: real time    1.2422
       DOS:  cpu time    0.0003: real time    0.0003
    --------------------------------------------
      LOOP:  cpu time    1.2432: real time    1.2426

 eigenvalue-minimisations  :    84
 total energy-change (2. order) :-0.2259596E+02  (-0.2243750E+02)
 number of electron       8.0000000 magnetization       0.0000000
 augmentation part        8.0000000 magnetization       0.0000000

 Free energy of the ion-electron system (eV)
  ---------------------------------------------------
  alpha Z        PSCENC =         0.02986872
  Ewald energy   TEWEN  =         8.61504491
  -Hartree energ DENC   =       -71.88717940
  -exchange      EXHF   =         0.00000000
  -V(xc)+E(xc)   XCENC  =        15.20313178
  PAW double counting   =        17.07221949      -17.14324176
  entropy T*S    EENTRO =        -0.04786213
  eigenvalues    EBANDS =       -52.44516049
  atomic energy  EATOM  =        99.56620307
  Solvation  Ediel_sol  =         0.00000000
  ---------------------------------------------------
  free energy    TOTEN  =        -1.03697580 eV

  energy without entropy =       -0.98911368  energy(sigma->0) =       -1.01304474


--------------------------------------------------------------------------------------------------------




--------------------------------------- Iteration      1(   3)  ---------------------------------------


     EDDAV:  cpu time    0.9415: real time    0.9410
       DOS:  cpu time    0.0003: real time    0.0003
    --------------------------------------------
      LOOP:  cpu time    0.9418: real time    0.9413

 eigenvalue-minimisations  :    60
 total energy-change (2. order) :-0.2486721E+01  (-0.2346960E+01)
 number of electron       8.0000000 magnetization       0.0000000
 augmentation part        8.0000000 magnetization       0.0000000

 Free energy of the ion-electron system (eV)
  ---------------------------------------------------
  alpha Z        PSCENC =         0.02986872
  Ewald energy   TEWEN  =         8.61504491
  -Hartree energ DENC   =       -71.88717940
  -exchange      EXHF   =         0.00000000
  -V(xc)+E(xc)   XCENC  =        15.20313178
  PAW double counting   =        17.07221949      -17.14324176
  entropy T*S    EENTRO =        -0.22172382
  eigenvalues    EBANDS =       -54.75802014
  atomic energy  EATOM  =        99.56620307
  Solvation  Ediel_sol  =         0.00000000
  ---------------------------------------------------
  free energy    TOTEN  =        -3.52369714 eV

  energy without entropy =       -3.30197332  energy(sigma->0) =       -3.41283523


--------------------------------------------------------------------------------------------------------




--------------------------------------- Iteration      1(   4)  ---------------------------------------


     EDDAV:  cpu time    0.8984: real time    0.8980
       DOS:  cpu time    0.0003: real time    0.0003
    --------------------------------------------
      LOOP:  cpu time    0.8987: real time    0.8983

 eigenvalue-minimisations  :    56
 total energy-change (2. order) :-0.1178776E+00  (-0.1135677E+00)
 number of electron       8.0000000 magnetization       0.0000000
 augmentation part        8.0000000 magnetization       0.0000000

 Free energy of the ion-electron system (eV)
  ---------------------------------------------------
  alpha Z        PSCENC =         0.02986872
  Ewald energy   TEWEN  =         8.61504491
  -Hartree energ DENC   =       -71.88717940
  -exchange      EXHF   =         0.00000000
  -V(xc)+E(xc)   XCENC  =        15.20313178
  PAW double counting   =        17.07221949      -17.14324176
  entropy T*S    EENTRO =        -0.22654529
  eigenvalues    EBANDS =       -54.87107630
  atomic energy  EATOM  =        99.56620307
  Solvation  Ediel_sol  =         0.00000000
  ---------------------------------------------------
  free energy    TOTEN  =        -3.64157477 eV

  energy without entropy =       -3.41502948  energy(sigma->0) =       -3.52830212


--------------------------------------------------------------------------------------------------------




--------------------------------------- Iteration      1(   5)  ---------------------------------------


     EDDAV:  cpu time    0.9385: real time    0.9380
       DOS:  cpu time    0.0003: real time    0.0003
    CHARGE:  cpu time    0.3618: real time    0.3616
    MIXING:  cpu time    0.0215: real time    0.0214
    --------------------------------------------
      LOOP:  cpu time    1.3221: real time    1.3214

 eigenvalue-minimisations  :    60
 total energy-change (2. order) :-0.1491788E-02  (-0.1491141E-02)
 number of electron       8.0000043 magnetization       0.0000000
 augmentation part        0.0939786 magnetization       0.0000102

 Broyden mixing:
  rms(total) = 0.12061E+00    rms(broyden)= 0.11822E+00
  rms(prec ) = 0.12450E+00
  weight for this iteration     100.00

 Free energy of the ion-electron system (eV)
  ---------------------------------------------------
  alpha Z        PSCENC =         0.02986872
  Ewald energy   TEWEN  =         8.61504491
  -Hartree energ DENC   =       -71.88717940
  -exchange      EXHF   =         0.00000000
  -V(xc)+E(xc)   XCENC  =        15.20313178
  PAW double counting   =        17.07221949      -17.14324176
  entropy T*S    EENTRO =        -0.22655325
  eigenvalues    EBANDS =       -54.87256012
  atomic energy  EATOM  =        99.56620307
  Solvation  Ediel_sol  =         0.00000000
  ---------------------------------------------------
  free energy    TOTEN  =        -3.64306656 eV

  energy without entropy =       -3.41651331  energy(sigma->0) =       -3.52978993


--------------------------------------------------------------------------------------------------------




--------------------------------------- Iteration      1(   6)  ---------------------------------------


    POTLOK:  cpu time    1.2884: real time    1.2877
    SETDIJ:  cpu time    0.0136: real time    0.0136
     EDDAV:  cpu time    0.9112: real time    0.9108
       DOS:  cpu time    0.0003: real time    0.0003
    CHARGE:  cpu time    0.3431: real time    0.3430
    MIXING:  cpu time    0.0233: real time    0.0233
    --------------------------------------------
      LOOP:  cpu time    2.5800: real time    2.5787

 eigenvalue-minimisations  :    56
 total energy-change (2. order) : 0.2564887E-04  (-0.1218944E-02)
 number of electron       8.0000043 magnetization       0.0000000
 augmentation part        0.0945928 magnetization       0.0000026

 Broyden mixing:
  rms(total) = 0.69657E-01    rms(broyden)= 0.69510E-01
  rms(prec ) = 0.73452E-01
  weight for this iteration     100.00

 eigenvalues of (default mixing * dielectric matrix)
  average eigenvalue GAMMA=   2.3964
  2.3964

 Free energy of the ion-electron system (eV)
  ---------------------------------------------------
  alpha Z        PSCENC =         0.02986872
  Ewald energy   TEWEN  =         8.61504491
  -Hartree energ DENC   =       -71.01136667
  -exchange      EXHF   =         0.00000000
  -V(xc)+E(xc)   XCENC  =        14.99733795
  PAW double counting   =        17.24333834      -17.30855523
  entropy T*S    EENTRO =        -0.22655772
  eigenvalues    EBANDS =       -55.54835428
  atomic energy  EATOM  =        99.56620307
  Solvation  Ediel_sol  =         0.00000000
  ---------------------------------------------------
  free energy    TOTEN  =        -3.64304091 eV

  energy without entropy =       -3.41648319  energy(sigma->0) =       -3.52976205


--------------------------------------------------------------------------------------------------------




--------------------------------------- Iteration      1(   7)  ---------------------------------------


    POTLOK:  cpu time    1.2780: real time    1.2773
    SETDIJ:  cpu time    0.0132: real time    0.0132
     EDDAV:  cpu time    0.8211: real time    0.8207
       DOS:  cpu time    0.0003: real time    0.0003
    CHARGE:  cpu time    0.3500: real time    0.3498
    MIXING:  cpu time    0.0247: real time    0.0247
    --------------------------------------------
      LOOP:  cpu time    2.4872: real time    2.4860

 eigenvalue-minimisations  :    48
 total energy-change (2. order) :-0.1702619E-01  (-0.2209617E-02)
 number of electron       8.0000044 magnetization      -0.0000000
 augmentation part        0.0953659 magnetization      -0.0000040

 Broyden mixing:
  rms(total) = 0.65590E-02    rms(broyden)= 0.65337E-02
  rms(prec ) = 0.72085E-02
  weight for this iteration     100.00

 eigenvalues of (default mixing * dielectric matrix)
  average eigenvalue GAMMA=   2.4970
  2.1597  2.8342

 Free energy of the ion-electron system (eV)
  ---------------------------------------------------
  alpha Z        PSCENC =         0.02986872
  Ewald energy   TEWEN  =         8.61504491
  -Hartree energ DENC   =       -69.78834943
  -exchange      EXHF   =         0.00000000
  -V(xc)+E(xc)   XCENC  =        14.70097702
  PAW double counting   =        17.83828974      -17.89629275
  entropy T*S    EENTRO =        -0.22655191
  eigenvalues    EBANDS =       -56.49925647
  atomic energy  EATOM  =        99.56620307
  Solvation  Ediel_sol  =         0.00000000
  ---------------------------------------------------
  free energy    TOTEN  =        -3.66006709 eV

  energy without entropy =       -3.43351518  energy(sigma->0) =       -3.54679114


--------------------------------------------------------------------------------------------------------




--------------------------------------- Iteration      1(   8)  ---------------------------------------


    POTLOK:  cpu time    1.2615: real time    1.2610
    SETDIJ:  cpu time    0.0136: real time    0.0136
     EDDAV:  cpu time    0.9189: real time    0.9186
       DOS:  cpu time    0.0003: real time    0.0003
    CHARGE:  cpu time    0.3520: real time    0.3789
    MIXING:  cpu time    0.0277: real time    0.0277
    --------------------------------------------
      LOOP:  cpu time    2.5741: real time    2.6001

 eigenvalue-minimisations  :    56
 total energy-change (2. order) :-0.1759578E-02  (-0.1355190E-03)
 number of electron       8.0000044 magnetization       0.0000000
 augmentation part        0.0954802 magnetization       0.0000093

 Broyden mixing:
  rms(total) = 0.21681E-02    rms(broyden)= 0.21674E-02
  rms(prec ) = 0.23078E-02
  weight for this iteration     100.00

 eigenvalues of (default mixing * dielectric matrix)
  average eigenvalue GAMMA=   2.0408
  3.0665  2.3604  0.6954

 Free energy of the ion-electron system (eV)
  ---------------------------------------------------
  alpha Z        PSCENC =         0.02986872
  Ewald energy   TEWEN  =         8.61504491
  -Hartree energ DENC   =       -69.68689819
  -exchange      EXHF   =         0.00000000
  -V(xc)+E(xc)   XCENC  =        14.67798208
  PAW double counting   =        18.07092403      -18.12937434
  entropy T*S    EENTRO =        -0.22653106
  eigenvalues    EBANDS =       -56.57904591
  atomic energy  EATOM  =        99.56620307
  Solvation  Ediel_sol  =         0.00000000
  ---------------------------------------------------
  free energy    TOTEN  =        -3.66182667 eV

  energy without entropy =       -3.43529561  energy(sigma->0) =       -3.54856114


--------------------------------------------------------------------------------------------------------




--------------------------------------- Iteration      1(   9)  ---------------------------------------


    POTLOK:  cpu time    1.2496: real time    1.2491
    SETDIJ:  cpu time    0.0134: real time    0.0134
     EDDAV:  cpu time    0.9199: real time    0.9195
       DOS:  cpu time    0.0003: real time    0.0003
    CHARGE:  cpu time    0.3494: real time    0.3492
    MIXING:  cpu time    0.0286: real time    0.0286
    --------------------------------------------
      LOOP:  cpu time    2.5611: real time    2.5601

 eigenvalue-minimisations  :    56
 total energy-change (2. order) :-0.1687062E-03  (-0.3096337E-05)
 number of electron       8.0000044 magnetization       0.0000000
 augmentation part        0.0954933 magnetization      -0.0000003

 Broyden mixing:
  rms(total) = 0.56511E-03    rms(broyden)= 0.56506E-03
  rms(prec ) = 0.73102E-03
  weight for this iteration     100.00

 eigenvalues of (default mixing * dielectric matrix)
  average eigenvalue GAMMA=   1.8971
  3.1588  2.5363  1.1900  0.7032

 Free energy of the ion-electron system (eV)
  ---------------------------------------------------
  alpha Z        PSCENC =         0.02986872
  Ewald energy   TEWEN  =         8.61504491
  -Hartree energ DENC   =       -69.69322887
  -exchange      EXHF   =         0.00000000
  -V(xc)+E(xc)   XCENC  =        14.68042077
  PAW double counting   =        18.07741631      -18.13610927
  entropy T*S    EENTRO =        -0.22652699
  eigenvalues    EBANDS =       -56.57508403
  atomic energy  EATOM  =        99.56620307
  Solvation  Ediel_sol  =         0.00000000
  ---------------------------------------------------
  free energy    TOTEN  =        -3.66199538 eV

  energy without entropy =       -3.43546839  energy(sigma->0) =       -3.54873188


--------------------------------------------------------------------------------------------------------




--------------------------------------- Iteration      1(  10)  ---------------------------------------


    POTLOK:  cpu time    1.2548: real time    1.2543
    SETDIJ:  cpu time    0.0134: real time    0.0134
     EDDAV:  cpu time    0.9128: real time    0.9124
       DOS:  cpu time    0.0003: real time    0.0003
    CHARGE:  cpu time    0.3444: real time    0.3443
    MIXING:  cpu time    0.0309: real time    0.0309
    --------------------------------------------
      LOOP:  cpu time    2.5567: real time    2.5557

 eigenvalue-minimisations  :    56
 total energy-change (2. order) :-0.5815052E-04  (-0.4049111E-06)
 number of electron       8.0000044 magnetization       0.0000000
 augmentation part        0.0954929 magnetization       0.0000004

 Broyden mixing:
  rms(total) = 0.28949E-03    rms(broyden)= 0.28949E-03
  rms(prec ) = 0.47944E-03
  weight for this iteration     100.00

 eigenvalues of (default mixing * dielectric matrix)
  average eigenvalue GAMMA=   1.8814
  3.2209  2.6453  1.9775  0.8615  0.7017

 Free energy of the ion-electron system (eV)
  ---------------------------------------------------
  alpha Z        PSCENC =         0.02986872
  Ewald energy   TEWEN  =         8.61504491
  -Hartree energ DENC   =       -69.69277767
  -exchange      EXHF   =         0.00000000
  -V(xc)+E(xc)   XCENC  =        14.68127945
  PAW double counting   =        18.06138400      -18.12012162
  entropy T*S    EENTRO =        -0.22652607
  eigenvalues    EBANDS =       -56.57640832
  atomic energy  EATOM  =        99.56620307
  Solvation  Ediel_sol  =         0.00000000
  ---------------------------------------------------
  free energy    TOTEN  =        -3.66205353 eV

  energy without entropy =       -3.43552746  energy(sigma->0) =       -3.54879049


--------------------------------------------------------------------------------------------------------




--------------------------------------- Iteration      1(  11)  ---------------------------------------


    POTLOK:  cpu time    1.2590: real time    1.2584
    SETDIJ:  cpu time    0.0136: real time    0.0136
     EDDAV:  cpu time    0.9397: real time    0.9394
       DOS:  cpu time    0.0003: real time    0.0003
    CHARGE:  cpu time    0.3513: real time    0.3513
    MIXING:  cpu time    0.0347: real time    0.0347
    --------------------------------------------
      LOOP:  cpu time    2.5986: real time    2.5976

 eigenvalue-minimisations  :    56
 total energy-change (2. order) :-0.8670328E-04  (-0.1006213E-05)
 number of electron       8.0000044 magnetization       0.0000000
 augmentation part        0.0954949 magnetization      -0.0000001

 Broyden mixing:
  rms(total) = 0.16125E-03    rms(broyden)= 0.16125E-03
  rms(prec ) = 0.29304E-03
  weight for this iteration     100.00

 eigenvalues of (default mixing * dielectric matrix)
  average eigenvalue GAMMA=   1.8173
  3.2436  2.7431  2.4444  0.9932  0.8184  0.6610

 Free energy of the ion-electron system (eV)
  ---------------------------------------------------
  alpha Z        PSCENC =         0.02986872
  Ewald energy   TEWEN  =         8.61504491
  -Hartree energ DENC   =       -69.67812210
  -exchange      EXHF   =         0.00000000
  -V(xc)+E(xc)   XCENC  =        14.67996813
  PAW double counting   =        18.02705388      -18.08572335
  entropy T*S    EENTRO =        -0.22652619
  eigenvalues    EBANDS =       -56.58990731
  atomic energy  EATOM  =        99.56620307
  Solvation  Ediel_sol  =         0.00000000
  ---------------------------------------------------
  free energy    TOTEN  =        -3.66214023 eV

  energy without entropy =       -3.43561404  energy(sigma->0) =       -3.54887714


--------------------------------------------------------------------------------------------------------




--------------------------------------- Iteration      1(  12)  ---------------------------------------


    POTLOK:  cpu time    1.2502: real time    1.2500
    SETDIJ:  cpu time    0.0135: real time    0.0135
     EDDAV:  cpu time    0.9170: real time    0.9169
       DOS:  cpu time    0.0003: real time    0.0003
    CHARGE:  cpu time    0.3396: real time    0.3656
    MIXING:  cpu time    0.0363: real time    0.0363
    --------------------------------------------
      LOOP:  cpu time    2.5569: real time    2.5826

 eigenvalue-minimisations  :    56
 total energy-change (2. order) :-0.2979848E-04  (-0.2339320E-06)
 number of electron       8.0000044 magnetization       0.0000000
 augmentation part        0.0954968 magnetization      -0.0000001

 Broyden mixing:
  rms(total) = 0.11948E-03    rms(broyden)= 0.11947E-03
  rms(prec ) = 0.20931E-03
  weight for this iteration     100.00

 eigenvalues of (default mixing * dielectric matrix)
  average eigenvalue GAMMA=   1.9160
  3.4708  3.1025  2.5458  1.9050  0.9729  0.7628  0.6520

 Free energy of the ion-electron system (eV)
  ---------------------------------------------------
  alpha Z        PSCENC =         0.02986872
  Ewald energy   TEWEN  =         8.61504491
  -Hartree energ DENC   =       -69.66908979
  -exchange      EXHF   =         0.00000000
  -V(xc)+E(xc)   XCENC  =        14.67904421
  PAW double counting   =        18.02324970      -18.08189949
  entropy T*S    EENTRO =        -0.22652646
  eigenvalues    EBANDS =       -56.59806491
  atomic energy  EATOM  =        99.56620307
  Solvation  Ediel_sol  =         0.00000000
  ---------------------------------------------------
  free energy    TOTEN  =        -3.66217003 eV

  energy without entropy =       -3.43564357  energy(sigma->0) =       -3.54890680


--------------------------------------------------------------------------------------------------------




--------------------------------------- Iteration      1(  13)  ---------------------------------------


    POTLOK:  cpu time    1.2796: real time    1.2795
    SETDIJ:  cpu time    0.0134: real time    0.0134
     EDDAV:  cpu time    0.8341: real time    0.8340
       DOS:  cpu time    0.0003: real time    0.0003
    CHARGE:  cpu time    0.3446: real time    0.3445
    MIXING:  cpu time    0.0376: real time    0.0376
    --------------------------------------------
      LOOP:  cpu time    2.5096: real time    2.5092

 eigenvalue-minimisations  :    48
 total energy-change (2. order) :-0.1933621E-04  (-0.3451191E-06)
 number of electron       8.0000044 magnetization       0.0000000
 augmentation part        0.0955000 magnetization       0.0000004

 Broyden mixing:
  rms(total) = 0.79694E-04    rms(broyden)= 0.79675E-04
  rms(prec ) = 0.10413E-03
  weight for this iteration     100.00

 eigenvalues of (default mixing * dielectric matrix)
  average eigenvalue GAMMA=   2.2104
  6.1536  3.2358  2.5220  2.5556  0.9611  0.9196  0.6802  0.6548

 Free energy of the ion-electron system (eV)
  ---------------------------------------------------
  alpha Z        PSCENC =         0.02986872
  Ewald energy   TEWEN  =         8.61504491
  -Hartree energ DENC   =       -69.65669859
  -exchange      EXHF   =         0.00000000
  -V(xc)+E(xc)   XCENC  =        14.67804014
  PAW double counting   =        18.03642067      -18.09509034
  entropy T*S    EENTRO =        -0.22652691
  eigenvalues    EBANDS =       -56.60945104
  atomic energy  EATOM  =        99.56620307
  Solvation  Ediel_sol  =         0.00000000
  ---------------------------------------------------
  free energy    TOTEN  =        -3.66218937 eV

  energy without entropy =       -3.43566245  energy(sigma->0) =       -3.54892591


--------------------------------------------------------------------------------------------------------




--------------------------------------- Iteration      1(  14)  ---------------------------------------


    POTLOK:  cpu time    1.2548: real time    1.2546
    SETDIJ:  cpu time    0.0133: real time    0.0133
     EDDAV:  cpu time    0.6810: real time    0.6809
       DOS:  cpu time    0.0003: real time    0.0003
    CHARGE:  cpu time    0.3430: real time    0.3430
    MIXING:  cpu time    0.0413: real time    0.0413
    --------------------------------------------
      LOOP:  cpu time    2.3337: real time    2.3333

 eigenvalue-minimisations  :    36
 total energy-change (2. order) :-0.4658189E-05  (-0.1436154E-07)
 number of electron       8.0000044 magnetization       0.0000000
 augmentation part        0.0955004 magnetization       0.0000003

 Broyden mixing:
  rms(total) = 0.33919E-04    rms(broyden)= 0.33914E-04
  rms(prec ) = 0.57247E-04
  weight for this iteration     100.00

 eigenvalues of (default mixing * dielectric matrix)
  average eigenvalue GAMMA=   2.1638
  6.8003  3.2568  2.5927  2.5611  1.0736  1.0736  0.7922  0.6786  0.6450

 Free energy of the ion-electron system (eV)
  ---------------------------------------------------
  alpha Z        PSCENC =         0.02986872
  Ewald energy   TEWEN  =         8.61504491
  -Hartree energ DENC   =       -69.65561260
  -exchange      EXHF   =         0.00000000
  -V(xc)+E(xc)   XCENC  =        14.67809293
  PAW double counting   =        18.04141075      -18.10009552
  entropy T*S    EENTRO =        -0.22652698
  eigenvalues    EBANDS =       -56.61057930
  atomic energy  EATOM  =        99.56620307
  Solvation  Ediel_sol  =         0.00000000
  ---------------------------------------------------
  free energy    TOTEN  =        -3.66219402 eV

  energy without entropy =       -3.43566704  energy(sigma->0) =       -3.54893053


--------------------------------------------------------------------------------------------------------




--------------------------------------- Iteration      1(  15)  ---------------------------------------


    POTLOK:  cpu time    1.2505: real time    1.2503
    SETDIJ:  cpu time    0.0143: real time    0.0143
     EDDAV:  cpu time    0.6395: real time    0.6393
       DOS:  cpu time    0.0003: real time    0.0003
    CHARGE:  cpu time    0.3515: real time    0.3514
    MIXING:  cpu time    0.0465: real time    0.0465
    --------------------------------------------
      LOOP:  cpu time    2.3026: real time    2.3020

 eigenvalue-minimisations  :    32
 total energy-change (2. order) :-0.7886548E-05  (-0.2187403E-07)
 number of electron       8.0000044 magnetization       0.0000000
 augmentation part        0.0955007 magnetization       0.0000001

 Broyden mixing:
  rms(total) = 0.24936E-04    rms(broyden)= 0.24934E-04
  rms(prec ) = 0.37779E-04
  weight for this iteration     100.00

 eigenvalues of (default mixing * dielectric matrix)
  average eigenvalue GAMMA=   2.3017
  7.5886  3.3801  3.0401  2.4934  2.4934  1.0139  0.9637  0.7341  0.6728  0.6371

 Free energy of the ion-electron system (eV)
  ---------------------------------------------------
  alpha Z        PSCENC =         0.02986872
  Ewald energy   TEWEN  =         8.61504491
  -Hartree energ DENC   =       -69.65554893
  -exchange      EXHF   =         0.00000000
  -V(xc)+E(xc)   XCENC  =        14.67815660
  PAW double counting   =        18.04041023      -18.09909514
  entropy T*S    EENTRO =        -0.22652699
  eigenvalues    EBANDS =       -56.61071438
  atomic energy  EATOM  =        99.56620307
  Solvation  Ediel_sol  =         0.00000000
  ---------------------------------------------------
  free energy    TOTEN  =        -3.66220191 eV

  energy without entropy =       -3.43567492  energy(sigma->0) =       -3.54893842


--------------------------------------------------------------------------------------------------------




--------------------------------------- Iteration      1(  16)  ---------------------------------------


    POTLOK:  cpu time    1.2606: real time    1.2602
    SETDIJ:  cpu time    0.0137: real time    0.0137
     EDDAV:  cpu time    0.6276: real time    0.6274
       DOS:  cpu time    0.0003: real time    0.0003
    CHARGE:  cpu time    0.3443: real time    0.3442
    MIXING:  cpu time    0.0455: real time    0.0455
    --------------------------------------------
      LOOP:  cpu time    2.2921: real time    2.2914

 eigenvalue-minimisations  :    32
 total energy-change (2. order) :-0.5704408E-05  (-0.3079708E-07)
 number of electron       8.0000044 magnetization       0.0000000
 augmentation part        0.0955010 magnetization       0.0000000

 Broyden mixing:
  rms(total) = 0.10774E-04    rms(broyden)= 0.10770E-04
  rms(prec ) = 0.14043E-04
  weight for this iteration     100.00

 eigenvalues of (default mixing * dielectric matrix)
  average eigenvalue GAMMA=   2.3344
  8.2932  4.1456  3.2073  2.5519  2.5519  1.0843  1.0109  0.8356  0.6846  0.6846
  0.6280

 Free energy of the ion-electron system (eV)
  ---------------------------------------------------
  alpha Z        PSCENC =         0.02986872
  Ewald energy   TEWEN  =         8.61504491
  -Hartree energ DENC   =       -69.65493441
  -exchange      EXHF   =         0.00000000
  -V(xc)+E(xc)   XCENC  =        14.67812755
  PAW double counting   =        18.03748680      -18.09616460
  entropy T*S    EENTRO =        -0.22652701
  eigenvalues    EBANDS =       -56.61131266
  atomic energy  EATOM  =        99.56620307
  Solvation  Ediel_sol  =         0.00000000
  ---------------------------------------------------
  free energy    TOTEN  =        -3.66220761 eV

  energy without entropy =       -3.43568061  energy(sigma->0) =       -3.54894411


--------------------------------------------------------------------------------------------------------




--------------------------------------- Iteration      1(  17)  ---------------------------------------


    POTLOK:  cpu time    1.2785: real time    1.2783
    SETDIJ:  cpu time    0.0140: real time    0.0140
     EDDAV:  cpu time    0.6459: real time    0.6456
       DOS:  cpu time    0.0003: real time    0.0003
    --------------------------------------------
      LOOP:  cpu time    1.9386: real time    1.9381

 eigenvalue-minimisations  :    32
 total energy-change (2. order) :-0.9919334E-06  (-0.3361187E-08)
 number of electron       8.0000044 magnetization       0.0000000
 augmentation part        0.0955010 magnetization       0.0000000

 Free energy of the ion-electron system (eV)
  ---------------------------------------------------
  alpha Z        PSCENC =         0.02986872
  Ewald energy   TEWEN  =         8.61504491
  -Hartree energ DENC   =       -69.65496156
  -exchange      EXHF   =         0.00000000
  -V(xc)+E(xc)   XCENC  =        14.67814488
  PAW double counting   =        18.03774245      -18.09642061
  entropy T*S    EENTRO =        -0.22652700
  eigenvalues    EBANDS =       -56.61130347
  atomic energy  EATOM  =        99.56620307
  Solvation  Ediel_sol  =         0.00000000
  ---------------------------------------------------
  free energy    TOTEN  =        -3.66220861 eV

  energy without entropy =       -3.43568161  energy(sigma->0) =       -3.54894511


--------------------------------------------------------------------------------------------------------




 average (electrostatic) potential at core
  the test charge radii are     0.5201
  (the norm of the test charge is              1.0000)
       1 -42.6555       2 -42.6531       3 -42.6555       4 -42.6531       5 -42.6555
       6 -42.6531       7 -42.6555       8 -42.6531
 
 
 
 E-fermi :  -6.6762     XC(G=0):  -0.4455     alpha+bet : -0.0423


 spin component 1

 k-point     1 :       0.0000    0.0000    0.0000
  band No.  band energies     occupation 
      1      -7.3270      1.00000
      2      -7.1513      0.99961
      3      -7.1513      0.99961
      4      -6.6764      0.50040
      5      -6.6763      0.50034
      6      -6.0959      0.00002
      7      -6.0959      0.00002
      8      -5.8077      0.00000
      9      -0.1252      0.00000
     10      -0.0251      0.00000
     11      -0.0251      0.00000
     12       0.1450      0.00000

 spin component 2

 k-point     1 :       0.0000    0.0000    0.0000
  band No.  band energies     occupation 
      1      -7.3270      1.00000
      2      -7.1513      0.99961
      3      -7.1513      0.99961
      4      -6.6763      0.50040
      5      -6.6763      0.50034
      6      -6.0959      0.00002
      7      -6.0959      0.00002
      8      -5.8077      0.00000
      9      -0.1247      0.00000
     10      -0.0249      0.00000
     11      -0.0249      0.00000
     12       0.1455      0.00000


--------------------------------------------------------------------------------------------------------


 soft charge-density along one line, spin component           1
         0         1         2         3         4         5         6         7         8         9
 total charge-density along one line
 
 soft charge-density along one line, spin component           2
         0         1         2         3         4         5         6         7         8         9
 total charge-density along one line
 
 pseudopotential strength for first ion, spin component:           1
 -2.371  -4.088   0.000   0.000   0.000
 -4.088  -6.964   0.000   0.000   0.000
  0.000   0.000  -0.347  -0.000  -0.000
  0.000   0.000  -0.000  -0.347  -0.000
  0.000   0.000  -0.000  -0.000  -0.347
 pseudopotential strength for first ion, spin component:           2
 -2.371  -4.088   0.000   0.000   0.000
 -4.088  -6.964   0.000   0.000   0.000
  0.000   0.000  -0.347  -0.000   0.000
  0.000   0.000  -0.000  -0.347  -0.000
  0.000   0.000   0.000  -0.000  -0.347
 total augmentation occupancy for first ion, spin component:           1
  1.386  -0.149   0.000   0.000  -0.000
 -0.149   0.016   0.000   0.000  -0.000
  0.000  -0.000   0.000  -0.000   0.000
  0.000   0.000  -0.000   0.000   0.000
  0.000   0.000   0.000  -0.000   0.000
 total augmentation occupancy for first ion, spin component:           2
 -0.000   0.000   0.000   0.000   0.000
  0.000  -0.000   0.000   0.000   0.000
 -0.000  -0.000   0.000   0.000   0.000
  0.000   0.000   0.000  -0.000   0.000
  0.000  -0.000   0.000  -0.000   0.000


------------------------ aborting loop because EDIFF is reached ----------------------------------------


    CHARGE:  cpu time    0.3781: real time    0.3781
    FORLOC:  cpu time    0.0475: real time    0.0474
    FORNL :  cpu time    0.1093: real time    0.1092
    STRESS:  cpu time    0.4433: real time    0.4432
    FORHAR:  cpu time    0.1328: real time    0.1328
    MIXING:  cpu time    0.0518: real time    0.0518
    OFIELD:  cpu time    0.0001: real time    0.0001

  FORCE on cell =-STRESS in cart. coord.  units (eV):
  Direction    XX          YY          ZZ          XY          YZ          ZX
  --------------------------------------------------------------------------------------
  Alpha Z     0.02987     0.02987     0.02987
  Ewald     -19.86178   -19.86178    48.33859     0.00000     0.00000     0.00000
  Hartree     3.95041     3.95041    61.75441    -0.00000    -0.00000    -0.00000
  E(xc)     -16.90974   -16.90974   -16.34994     0.00000     0.00000    -0.00000
  Local     -12.92032   -12.92032  -140.12144     0.00000    -0.00000    -0.00000
  n-local   -12.82402   -12.82402   -12.89822     0.00000    -0.00000    -0.00000
  augment     0.62429     0.62429     0.62330     0.00000     0.00000     0.00000
  Kinetic    57.04665    57.04665    45.18494     0.00000    -0.00000    -0.00000
  Fock        0.00000     0.00000     0.00000     0.00000     0.00000     0.00000
  -------------------------------------------------------------------------------------
  Total      -0.86464    -0.86464   -13.43849    -0.00000    -0.00000    -0.00000
  in kB      -0.26538    -0.26538    -4.12468    -0.00000    -0.00000    -0.00000
  external pressure =       -1.55 kB  Pullay stress =        0.00 kB


 VOLUME and BASIS-vectors are now :
 -----------------------------------------------------------------------------
  energy-cutoff  :      300.00
  volume of cell :     5220.00
      direct lattice vectors                 reciprocal lattice vectors
    15.000000000  0.000000000  0.000000000     0.066666667 -0.000000000  0.000000000
     0.000000000 15.000000000  0.000000000     0.000000000  0.066666667  0.000000000
     0.000000000  0.000000000 23.200000000    -0.000000000 -0.000000000  0.043103448

  length of vectors
    15.000000000 15.000000000 23.200000000     0.066666667  0.066666667  0.043103448


 FORCES acting on ions
    electron-ion (+dipol)            ewald-force                    non-local-force                 convergence-correction
 -----------------------------------------------------------------------------------------------
   0.312E-17 -.141E-16 0.543E-16   0.427E-17 -.199E-18 0.222E-15   -.268E-26 -.364E-26 0.000E+00   -.258E-15 -.162E-15 0.292E-14
   -.643E-17 -.240E-16 0.501E-14   -.214E-18 -.636E-19 0.000E+00   -.123E-26 -.485E-26 0.564E-23   -.259E-15 -.163E-15 -.342E-14
   0.628E-17 -.109E-16 0.958E-14   0.572E-18 0.479E-18 -.194E-15   0.142E-25 -.162E-26 0.000E+00   -.249E-15 -.162E-15 -.789E-15
   0.630E-17 -.186E-16 0.143E-13   0.586E-18 0.763E-18 0.182E-15   0.141E-25 -.162E-26 -.737E-24   -.242E-15 -.162E-15 0.160E-14
   0.111E-16 -.676E-17 0.181E-13   -.630E-18 0.294E-18 0.194E-15   -.759E-26 -.525E-26 0.000E+00   -.239E-15 -.173E-15 0.415E-14
   0.483E-17 -.147E-16 0.287E-13   -.616E-18 0.578E-18 -.222E-15   -.830E-26 0.808E-26 0.838E-23   -.244E-15 -.167E-15 -.369E-14
   0.138E-16 -.430E-17 0.288E-13   0.170E-18 0.112E-17 0.000E+00   -.224E-27 0.162E-26 0.000E+00   -.247E-15 -.166E-15 -.115E-14
   0.317E-17 -.170E-16 0.302E-13   -.432E-17 0.126E-17 0.222E-15   -.310E-26 -.162E-26 0.219E-22   -.246E-15 -.169E-15 0.876E-15
 -----------------------------------------------------------------------------------------------
   0.421E-16 -.110E-15 0.135E-12   -.177E-18 0.423E-17 0.404E-15   0.520E-26 -.889E-26 0.351E-22   -.198E-14 -.132E-14 0.497E-15
 
 
 POSITION                                       TOTAL-FORCE (eV/Angst)
 -----------------------------------------------------------------------------------
      0.00000      0.00000      0.00000         0.000000     -0.000000     -0.000000
      0.00000      0.00000      2.90000        -0.000000      0.000000     -0.000000
      0.00000      0.00000      5.80000        -0.000000      0.000000     -0.000000
      0.00000      0.00000      8.70000        -0.000000      0.000000      0.000000
      0.00000      0.00000     11.60000         0.000000      0.000000      0.000000
      0.00000      0.00000     14.50000         0.000000      0.000000      0.000000
      0.00000      0.00000     17.40000        -0.000000     -0.000000      0.000000
      0.00000      0.00000     20.30000         0.000000     -0.000000     -0.000000
 -----------------------------------------------------------------------------------
    total drift:                               -0.000000     -0.000000      0.000000


--------------------------------------------------------------------------------------------------------



  FREE ENERGIE OF THE ION-ELECTRON SYSTEM (eV)
  ---------------------------------------------------
  free  energy   TOTEN  =        -3.66220861 eV

  energy  without entropy=       -3.43568161  energy(sigma->0) =       -3.54894511
 


--------------------------------------------------------------------------------------------------------


    POTLOK:  cpu time    1.3161: real time    1.3159


--------------------------------------------------------------------------------------------------------


     LOOP+:  cpu time   38.2661: real time   38.3063
    4ORBIT:  cpu time    0.0000: real time    0.0000

 total amount of memory used by VASP MPI-rank0   165604. kBytes
=======================================================================

   base      :      30000. kBytes
   nonl-proj :      10347. kBytes
   fftplans  :      28817. kBytes
   grid      :      90505. kBytes
   one-center:         19. kBytes
   wavefun   :       5916. kBytes
 
  
  
 General timing and accounting informations for this job:
 ========================================================
  
                  Total CPU time used (sec):       39.678
                            User time (sec):       38.076
                          System time (sec):        1.602
                         Elapsed time (sec):       40.062
  
                   Maximum memory used (kb):      379744.
                   Average memory used (kb):           0.
  
                          Minor page faults:       505473
                          Major page faults:            0
                 Voluntary context switches:         1217
