<?xml version="1.0" encoding="ISO-8859-1"?>
<modeling>
 <generator>
  <i name="program" type="string">vasp </i>
  <i name="version" type="string">5.4.4.18Apr17-6-g9f103f2a35  </i>
  <i name="subversion" type="string">(build Aug 24 2024 05:40:03) complex            parallel </i>
  <i name="platform" type="string">IFC22_IMPI </i>
  <i name="date" type="string">2024 11 22 </i>
  <i name="time" type="string">21:49:25 </i>
 </generator>
 <incar>
  <i type="string" name="PREC">normal</i>
  <i type="int" name="ISPIN">     2</i>
  <i type="int" name="ICHARG">     2</i>
  <i type="int" name="NELM">   100</i>
  <i name="EDIFF">      0.00000100</i>
  <i type="int" name="NSW">     0</i>
  <i name="ENCUT">    300.00000000</i>
  <i name="NUPDOWN">      0.00000000</i>
  <i type="int" name="ISMEAR">     0</i>
  <i name="SIGMA">      0.20000000</i>
  <i type="logical" name="LWAVE"> F  </i>
  <i type="logical" name="LCHARG"> F  </i>
  <v type="int" name="KPOINT_BSE">    -1     0     0     0</v>
  <i type="int" name="NELM">   100</i>
 </incar>
 <structure name="primitive_cell" >
  <crystal>
   <varray name="basis" >
    <v>      15.00000000       0.00000000       0.00000000 </v>
    <v>       0.00000000      15.00000000       0.00000000 </v>
    <v>       0.00000000       0.00000000       2.90000000 </v>
   </varray>
   <i name="volume">    652.50000000 </i>
   <varray name="rec_basis" >
    <v>       0.06666667      -0.00000000       0.00000000 </v>
    <v>       0.00000000       0.06666667       0.00000000 </v>
    <v>      -0.00000000      -0.00000000       0.34482759 </v>
   </varray>
  </crystal>
  <varray name="positions" >
   <v>       0.00000000       0.00000000       0.00000000 </v>
  </varray>
 </structure>
 <varray name="primitive_index" >
  <v type="int" >        1 </v>
 </varray>
 <kpoints>
  <generation param="Gamma">
   <v type="int" name="divisions">       1        1        1 </v>
   <v name="usershift">      0.00000000       0.00000000       0.00000000 </v>
   <v name="genvec1">      1.00000000       0.00000000       0.00000000 </v>
   <v name="genvec2">      0.00000000       1.00000000       0.00000000 </v>
   <v name="genvec3">      0.00000000       0.00000000       1.00000000 </v>
   <v name="shift">      0.00000000       0.00000000       0.00000000 </v>
  </generation>
  <varray name="kpointlist" >
   <v>       0.00000000       0.00000000       0.00000000 </v>
  </varray>
  <varray name="weights" >
   <v>       1.00000000 </v>
  </varray>
 </kpoints>
 <parameters>
  <separator name="general" >
   <i type="string" name="SYSTEM">unknown system</i>
   <i type="logical" name="LCOMPAT"> F  </i>
  </separator>
  <separator name="electronic" >
   <i type="string" name="PREC">normal</i>
   <i name="ENMAX">    300.00000000</i>
   <i name="ENAUG">    400.00000000</i>
   <i name="EDIFF">      0.00000100</i>
   <i type="int" name="IALGO">    38</i>
   <i type="int" name="IWAVPR">    10</i>
   <i type="int" name="NBANDS">    12</i>
   <i name="NELECT">      8.00000000</i>
   <i type="int" name="TURBO">     0</i>
   <i type="int" name="IRESTART">     0</i>
   <i type="int" name="NREBOOT">     0</i>
   <i type="int" name="NMIN">     0</i>
   <i name="EREF">      0.00000000</i>
   <separator name="electronic smearing" >
    <i type="int" name="ISMEAR">     0</i>
    <i name="SIGMA">      0.20000000</i>
    <i name="KSPACING">      0.50000000</i>
    <i type="logical" name="KGAMMA"> T  </i>
   </separator>
   <separator name="electronic projectors" >
    <i type="logical" name="LREAL"> F  </i>
    <v name="ROPT">      0.00000000</v>
    <i type="int" name="LMAXPAW">  -100</i>
    <i type="int" name="LMAXMIX">     2</i>
    <i type="logical" name="NLSPLINE"> F  </i>
   </separator>
   <separator name="electronic startup" >
    <i type="int" name="ISTART">     0</i>
    <i type="int" name="ICHARG">     2</i>
    <i type="int" name="INIWAV">     1</i>
   </separator>
   <separator name="electronic spin" >
    <i type="int" name="ISPIN">     2</i>
    <i type="logical" name="LNONCOLLINEAR"> F  </i>
    <v name="MAGMOM">      0.00000000      0.00000000      0.00000000      0.00000000      0.00000000      0.00000000      0.00000000      0.00000000</v>
    <i name="NUPDOWN">      0.00000000</i>
    <i type="logical" name="LSORBIT"> F  </i>
    <v name="SAXIS">      0.00000000      0.00000000      1.00000000</v>
    <i type="logical" name="LSPIRAL"> F  </i>
    <v name="QSPIRAL">      0.00000000      0.00000000      0.00000000</v>
    <i type="logical" name="LZEROZ"> F  </i>
   </separator>
   <separator name="electronic exchange-correlation" >
    <i type="logical" name="LASPH"> F  </i>
    <i type="logical" name="LMETAGGA"> F  </i>
   </separator>
   <separator name="electronic convergence" >
    <i type="int" name="NELM">   100</i>
    <i type="int" name="NELMDL">    -5</i>
    <i type="int" name="NELMIN">     2</i>
    <i name="ENINI">    300.00000000</i>
    <separator name="electronic convergence detail" >
     <i type="logical" name="LDIAG"> T  </i>
     <i type="logical" name="LSUBROT"> F  </i>
     <i name="WEIMIN">      0.00000000</i>
     <i name="EBREAK">      0.00000002</i>
     <i name="DEPER">      0.30000000</i>
     <i type="int" name="NRMM">     4</i>
     <i name="TIME">      0.40000000</i>
    </separator>
   </separator>
   <separator name="electronic mixer" >
    <i name="AMIX">      0.40000000</i>
    <i name="BMIX">      1.00000000</i>
    <i name="AMIN">      0.10000000</i>
    <i name="AMIX_MAG">      1.60000000</i>
    <i name="BMIX_MAG">      1.00000000</i>
    <separator name="electronic mixer details" >
     <i type="int" name="IMIX">     4</i>
     <i type="logical" name="MIXFIRST"> F  </i>
     <i type="int" name="MAXMIX">   -45</i>
     <i name="WC">    100.00000000</i>
     <i type="int" name="INIMIX">     1</i>
     <i type="int" name="MIXPRE">     1</i>
     <i type="int" name="MREMOVE">     5</i>
    </separator>
   </separator>
   <separator name="electronic dipolcorrection" >
    <i type="logical" name="LDIPOL"> F  </i>
    <i type="logical" name="LMONO"> F  </i>
    <i type="int" name="IDIPOL">     0</i>
    <i name="EPSILON">      1.00000000</i>
    <v name="DIPOL">   -100.00000000   -100.00000000   -100.00000000</v>
    <i name="EFIELD">      0.00000000</i>
   </separator>
  </separator>
  <separator name="grids" >
   <i type="int" name="NGX">    64</i>
   <i type="int" name="NGY">    64</i>
   <i type="int" name="NGZ">    98</i>
   <i type="int" name="NGXF">   128</i>
   <i type="int" name="NGYF">   128</i>
   <i type="int" name="NGZF">   196</i>
   <i type="logical" name="ADDGRID"> F  </i>
  </separator>
  <separator name="ionic" >
   <i type="int" name="NSW">     0</i>
   <i type="int" name="IBRION">    -1</i>
   <i type="int" name="MDALGO">     0</i>
   <i type="int" name="ISIF">     2</i>
   <i name="PSTRESS">      0.00000000</i>
   <i name="EDIFFG">      0.00001000</i>
   <i type="int" name="NFREE">     0</i>
   <i name="POTIM">      0.50000000</i>
   <i name="SMASS">     -3.00000000</i>
   <i name="SCALEE">      1.00000000</i>
  </separator>
  <separator name="ionic md" >
   <i name="TEBEG">      0.00010000</i>
   <i name="TEEND">      0.00010000</i>
   <i type="int" name="NBLOCK">     1</i>
   <i type="int" name="KBLOCK">     1</i>
   <i type="int" name="NPACO">   256</i>
   <i name="APACO">     16.00000000</i>
  </separator>
  <separator name="symmetry" >
   <i type="int" name="ISYM">     2</i>
   <i name="SYMPREC">      0.00001000</i>
  </separator>
  <separator name="dos" >
   <i type="int" name="LORBIT">     0</i>
   <v name="RWIGS">     -1.00000000</v>
   <i type="int" name="NEDOS">   301</i>
   <i name="EMIN">     10.00000000</i>
   <i name="EMAX">    -10.00000000</i>
   <i name="EFERMI">      0.00000000</i>
  </separator>
  <separator name="writing" >
   <i type="int" name="NWRITE">     2</i>
   <i type="logical" name="LWAVE"> F  </i>
   <i type="logical" name="LDOWNSAMPLE"> F  </i>
   <i type="logical" name="LCHARG"> F  </i>
   <i type="logical" name="LPARD"> F  </i>
   <i type="logical" name="LVTOT"> F  </i>
   <i type="logical" name="LVHAR"> F  </i>
   <i type="logical" name="LELF"> F  </i>
   <i type="logical" name="LOPTICS"> F  </i>
   <v name="STM">      0.00000000      0.00000000      0.00000000      0.00000000      0.00000000      0.00000000      0.00000000</v>
  </separator>
  <separator name="performance" >
   <i type="int" name="NPAR">     4</i>
   <i type="int" name="NSIM">     4</i>
   <i type="int" name="NBLK">    -1</i>
   <i type="logical" name="LPLANE"> T  </i>
   <i type="logical" name="LSCALAPACK"> T  </i>
   <i type="logical" name="LSCAAWARE"> F  </i>
   <i type="logical" name="LSCALU"> F  </i>
   <i type="logical" name="LASYNC"> F  </i>
   <i type="logical" name="LORBITALREAL"> F  </i>
  </separator>
  <separator name="miscellaneous" >
   <i type="int" name="IDIOT">     3</i>
   <i type="int" name="ISPECIAL">     0</i>
   <i type="logical" name="LMUSIC"> F  </i>
   <v name="POMASS">      1.00000000</v>
   <v name="DARWINR">      0.00000000</v>
   <v name="DARWINV">      1.00000000</v>
   <i type="logical" name="LCORR"> T  </i>
  </separator>
  <i type="logical" name="GGA_COMPAT"> T  </i>
  <i type="logical" name="LBERRY"> F  </i>
  <i type="int" name="ICORELEVEL">     0</i>
  <i type="logical" name="LDAU"> F  </i>
  <i type="int" name="I_CONSTRAINED_M">     0</i>
  <separator name="electronic exchange-correlation" >
   <i type="string" name="GGA">--</i>
   <i type="int" name="VOSKOWN">     0</i>
   <i type="logical" name="LHFCALC"> F  </i>
   <i type="string" name="PRECFOCK"></i>
   <i type="logical" name="LSYMGRAD"> F  </i>
   <i type="logical" name="LHFONE"> F  </i>
   <i type="logical" name="LRHFCALC"> F  </i>
   <i type="logical" name="LTHOMAS"> F  </i>
   <i type="logical" name="LMODELHF"> F  </i>
   <i name="ENCUT4O">     -1.00000000</i>
   <i type="int" name="EXXOEP">     0</i>
   <i type="int" name="FOURORBIT">     0</i>
   <i name="AEXX">      0.00000000</i>
   <i name="HFALPHA">      0.00000000</i>
   <i name="MCALPHA">      0.00000000</i>
   <i name="ALDAX">      1.00000000</i>
   <i name="AGGAX">      1.00000000</i>
   <i name="ALDAC">      1.00000000</i>
   <i name="AGGAC">      1.00000000</i>
   <i type="int" name="NKREDX">     1</i>
   <i type="int" name="NKREDY">     1</i>
   <i type="int" name="NKREDZ">     1</i>
   <i type="logical" name="SHIFTRED"> F  </i>
   <i type="logical" name="ODDONLY"> F  </i>
   <i type="logical" name="EVENONLY"> F  </i>
   <i type="int" name="LMAXFOCK">     0</i>
   <i type="int" name="NMAXFOCKAE">     0</i>
   <i type="logical" name="LFOCKAEDFT"> F  </i>
   <i name="HFSCREEN">      0.00000000</i>
   <i name="HFSCREENC">      0.00000000</i>
   <i type="int" name="NBANDSGWLOW">     0</i>
  </separator>
  <separator name="vdW DFT" >
   <i type="logical" name="LUSE_VDW"> F  </i>
   <i name="Zab_VDW">     -0.84910000</i>
   <i name="PARAM1">      0.12340000</i>
   <i name="PARAM2">      1.00000000</i>
   <i name="PARAM3">      0.00000000</i>
  </separator>
  <separator name="model GW" >
   <i type="int" name="MODEL_GW">     0</i>
   <i name="MODEL_EPS0">    391.50000000</i>
   <i name="MODEL_ALPHA">      1.00000000</i>
  </separator>
  <separator name="linear response parameters" >
   <i type="logical" name="LEPSILON"> F  </i>
   <i type="logical" name="LRPA"> F  </i>
   <i type="logical" name="LNABLA"> F  </i>
   <i type="logical" name="LVEL"> F  </i>
   <i type="int" name="KINTER">     0</i>
   <i name="CSHIFT">      0.10000000</i>
   <i name="OMEGAMAX">     -1.00000000</i>
   <i name="DEG_THRESHOLD">      0.00200000</i>
   <i name="RTIME">     -0.10000000</i>
   <i name="WPLASMAI">      0.00000000</i>
   <v name="DFIELD">      0.00000000      0.00000000      0.00000000</v>
   <v name="WPLASMA">      0.00000000      0.00000000      0.00000000      0.00000000      0.00000000      0.00000000      0.00000000      0.00000000      0.00000000</v>
  </separator>
  <separator name="orbital magnetization" >
   <i type="logical" name="NUCIND"> F  </i>
   <v name="MAGPOS">      0.00000000      0.00000000      0.00000000</v>
   <i type="logical" name="LNICSALL"> T  </i>
   <i type="logical" name="ORBITALMAG"> F  </i>
   <i type="logical" name="LMAGBLOCH"> F  </i>
   <i type="logical" name="LCHIMAG"> F  </i>
   <i type="logical" name="LGAUGE"> T  </i>
   <i type="int" name="MAGATOM">     0</i>
   <v name="MAGDIPOL">      0.00000000      0.00000000      0.00000000</v>
   <v name="AVECCONST">      0.00000000      0.00000000      0.00000000</v>
  </separator>
  <separator name="response functions" >
   <i type="logical" name="LADDER"> F  </i>
   <i type="logical" name="LRPAFORCE"> F  </i>
   <i type="logical" name="LFXC"> F  </i>
   <i type="logical" name="LHARTREE"> T  </i>
   <i type="int" name="IBSE">     0</i>
   <v type="int" name="KPOINT">    -1     0     0     0</v>
   <i type="logical" name="LTCTE"> F  </i>
   <i type="logical" name="LTETE"> F  </i>
   <i type="logical" name="LTRIPLET"> F  </i>
   <i type="logical" name="LFXCEPS"> F  </i>
   <i type="logical" name="LFXHEG"> F  </i>
   <i type="int" name="NATURALO">     2</i>
   <i type="logical" name="L2ORDER"> F  </i>
   <i type="logical" name="LMP2LT"> F  </i>
   <i type="logical" name="LUSEW"> F  </i>
   <i name="ENCUTGW">     -2.00000000</i>
   <i name="ENCUTGWSOFT">     -2.00000000</i>
   <i name="ENCUTLF">     -1.00000000</i>
   <i type="int" name="LMAXMP2">    -1</i>
   <i name="SCISSOR">      0.00000000</i>
   <i type="int" name="NOMEGA">     0</i>
   <i type="int" name="NOMEGAR">     0</i>
   <i type="int" name="NBANDSGW">    -1</i>
   <i type="int" name="NBANDSO">    -1</i>
   <i type="int" name="NBANDSV">    -1</i>
   <i type="int" name="NELM">   100</i>
   <i type="int" name="NELMHF">     1</i>
   <i type="int" name="DIM">     3</i>
   <i type="int" name="ANTIRES">     0</i>
   <i name="OMEGAMAX">    -30.00000000</i>
   <i name="OMEGAMIN">    -30.00000000</i>
   <i name="OMEGATL">   -200.00000000</i>
   <i type="int" name="OMEGAGRID">   140</i>
   <i name="CSHIFT">     -0.10000000</i>
   <i type="logical" name="SELFENERGY"> F  </i>
   <i type="logical" name="LSPECTRAL"> F  </i>
   <i type="logical" name="LSPECTRALGW"> F  </i>
   <i type="logical" name="LSINGLES"> F  </i>
   <i type="logical" name="LFERMIGW"> F  </i>
   <i type="logical" name="ODDONLYGW"> F  </i>
   <i type="logical" name="EVENONLYGW"> F  </i>
   <i type="int" name="NKREDLFX">     1</i>
   <i type="int" name="NKREDLFY">     1</i>
   <i type="int" name="NKREDLFZ">     1</i>
   <i type="int" name="MAXMEM">  2800</i>
   <i type="int" name="TELESCOPE">     0</i>
   <i type="int" name="TAUPAR">     1</i>
   <i type="int" name="OMEGAPAR">    -1</i>
   <i name="LAMBDA">      1.00000000</i>
  </separator>
  <separator name="External order field" >
   <i name="OFIELD_KAPPA">      0.00000000</i>
   <v name="OFIELD_K">      0.00000000      0.00000000      0.00000000</v>
   <i name="OFIELD_Q6_NEAR">      0.00000000</i>
   <i name="OFIELD_Q6_FAR">      0.00000000</i>
   <i name="OFIELD_A">      0.00000000</i>
  </separator>
 </parameters>
 <atominfo>
  <atoms>       8 </atoms>
  <types>       1 </types>
  <array name="atoms" >
   <dimension dim="1">ion</dimension>
   <field type="string">element</field>
   <field type="int">atomtype</field>
   <set>
    <rc><c>H </c><c>   1</c></rc>
    <rc><c>H </c><c>   1</c></rc>
    <rc><c>H </c><c>   1</c></rc>
    <rc><c>H </c><c>   1</c></rc>
    <rc><c>H </c><c>   1</c></rc>
    <rc><c>H </c><c>   1</c></rc>
    <rc><c>H </c><c>   1</c></rc>
    <rc><c>H </c><c>   1</c></rc>
   </set>
  </array>
  <array name="atomtypes" >
   <dimension dim="1">type</dimension>
   <field type="int">atomspertype</field>
   <field type="string">element</field>
   <field>mass</field>
   <field>valence</field>
   <field type="string">pseudopotential</field>
   <set>
    <rc><c>   8</c><c>H </c><c>      1.00000000</c><c>      1.00000000</c><c>  PAW_PBE H 15Jun2001                   </c></rc>
   </set>
  </array>
 </atominfo>
 <structure name="initialpos" >
  <crystal>
   <varray name="basis" >
    <v>      15.00000000       0.00000000       0.00000000 </v>
    <v>       0.00000000      15.00000000       0.00000000 </v>
    <v>       0.00000000       0.00000000      23.20000000 </v>
   </varray>
   <i name="volume">   5220.00000000 </i>
   <varray name="rec_basis" >
    <v>       0.06666667      -0.00000000       0.00000000 </v>
    <v>       0.00000000       0.06666667       0.00000000 </v>
    <v>      -0.00000000      -0.00000000       0.04310345 </v>
   </varray>
  </crystal>
  <varray name="positions" >
   <v>       0.00000000       0.00000000       0.00000000 </v>
   <v>       0.00000000       0.00000000       0.12500000 </v>
   <v>       0.00000000       0.00000000       0.25000000 </v>
   <v>       0.00000000       0.00000000       0.37500000 </v>
   <v>       0.00000000       0.00000000       0.50000000 </v>
   <v>       0.00000000       0.00000000       0.62500000 </v>
   <v>       0.00000000       0.00000000       0.75000000 </v>
   <v>       0.00000000       0.00000000       0.87500000 </v>
  </varray>
 </structure>
 <calculation>
  <scstep>
   <time name="dav">    0.82    0.82</time>
   <time name="total">    2.07    2.07</time>
   <energy>
    <i name="alphaZ">      0.02986872 </i>
    <i name="ewald">      8.61504491 </i>
    <i name="hartreedc">    -71.88717940 </i>
    <i name="XCdc">     15.20313178 </i>
    <i name="pawpsdc">     17.07221949 </i>
    <i name="pawaedc">    -17.14324176 </i>
    <i name="eentropy">     -0.00000122 </i>
    <i name="bandstr">    -29.89705667 </i>
    <i name="atom">     99.56620307 </i>
    <i name="e_fr_energy">     21.55898893 </i>
    <i name="e_wo_entrp">     21.55899015 </i>
    <i name="e_0_energy">     21.55898954 </i>
   </energy>
  </scstep>
  <scstep>
   <time name="dav">    1.24    1.24</time>
   <time name="total">    1.24    1.24</time>
   <energy>
    <i name="e_fr_energy">     -1.03697580 </i>
    <i name="e_wo_entrp">     -0.98911368 </i>
    <i name="e_0_energy">     -1.01304474 </i>
   </energy>
  </scstep>
  <scstep>
   <time name="dav">    0.94    0.94</time>
   <time name="total">    0.94    0.94</time>
   <energy>
    <i name="e_fr_energy">     -3.52369714 </i>
    <i name="e_wo_entrp">     -3.30197332 </i>
    <i name="e_0_energy">     -3.41283523 </i>
   </energy>
  </scstep>
  <scstep>
   <time name="dav">    0.90    0.90</time>
   <time name="total">    0.90    0.90</time>
   <energy>
    <i name="e_fr_energy">     -3.64157477 </i>
    <i name="e_wo_entrp">     -3.41502948 </i>
    <i name="e_0_energy">     -3.52830212 </i>
   </energy>
  </scstep>
  <scstep>
   <time name="dav">    0.94    0.94</time>
   <time name="total">    1.32    1.32</time>
   <energy>
    <i name="e_fr_energy">     -3.64306656 </i>
    <i name="e_wo_entrp">     -3.41651331 </i>
    <i name="e_0_energy">     -3.52978993 </i>
   </energy>
  </scstep>
  <scstep>
   <time name="dav">    0.91    0.91</time>
   <time name="total">    2.58    2.58</time>
   <energy>
    <i name="e_fr_energy">     -3.64304091 </i>
    <i name="e_wo_entrp">     -3.41648319 </i>
    <i name="e_0_energy">     -3.52976205 </i>
   </energy>
  </scstep>
  <scstep>
   <time name="dav">    0.82    0.82</time>
   <time name="total">    2.49    2.49</time>
   <energy>
    <i name="e_fr_energy">     -3.66006709 </i>
    <i name="e_wo_entrp">     -3.43351518 </i>
    <i name="e_0_energy">     -3.54679114 </i>
   </energy>
  </scstep>
  <scstep>
   <time name="dav">    0.92    0.92</time>
   <time name="total">    2.57    2.60</time>
   <energy>
    <i name="e_fr_energy">     -3.66182667 </i>
    <i name="e_wo_entrp">     -3.43529561 </i>
    <i name="e_0_energy">     -3.54856114 </i>
   </energy>
  </scstep>
  <scstep>
   <time name="dav">    0.92    0.92</time>
   <time name="total">    2.56    2.56</time>
   <energy>
    <i name="e_fr_energy">     -3.66199538 </i>
    <i name="e_wo_entrp">     -3.43546839 </i>
    <i name="e_0_energy">     -3.54873188 </i>
   </energy>
  </scstep>
  <scstep>
   <time name="dav">    0.91    0.91</time>
   <time name="total">    2.56    2.56</time>
   <energy>
    <i name="e_fr_energy">     -3.66205353 </i>
    <i name="e_wo_entrp">     -3.43552746 </i>
    <i name="e_0_energy">     -3.54879049 </i>
   </energy>
  </scstep>
  <scstep>
   <time name="dav">    0.94    0.94</time>
   <time name="total">    2.60    2.60</time>
   <energy>
    <i name="e_fr_energy">     -3.66214023 </i>
    <i name="e_wo_entrp">     -3.43561404 </i>
    <i name="e_0_energy">     -3.54887714 </i>
   </energy>
  </scstep>
  <scstep>
   <time name="dav">    0.92    0.92</time>
   <time name="total">    2.56    2.58</time>
   <energy>
    <i name="e_fr_energy">     -3.66217003 </i>
    <i name="e_wo_entrp">     -3.43564357 </i>
    <i name="e_0_energy">     -3.54890680 </i>
   </energy>
  </scstep>
  <scstep>
   <time name="dav">    0.83    0.83</time>
   <time name="total">    2.51    2.51</time>
   <energy>
    <i name="e_fr_energy">     -3.66218937 </i>
    <i name="e_wo_entrp">     -3.43566245 </i>
    <i name="e_0_energy">     -3.54892591 </i>
   </energy>
  </scstep>
  <scstep>
   <time name="dav">    0.68    0.68</time>
   <time name="total">    2.33    2.33</time>
   <energy>
    <i name="e_fr_energy">     -3.66219402 </i>
    <i name="e_wo_entrp">     -3.43566704 </i>
    <i name="e_0_energy">     -3.54893053 </i>
   </energy>
  </scstep>
  <scstep>
   <time name="dav">    0.64    0.64</time>
   <time name="total">    2.30    2.30</time>
   <energy>
    <i name="e_fr_energy">     -3.66220191 </i>
    <i name="e_wo_entrp">     -3.43567492 </i>
    <i name="e_0_energy">     -3.54893842 </i>
   </energy>
  </scstep>
  <scstep>
   <time name="dav">    0.63    0.63</time>
   <time name="total">    2.29    2.29</time>
   <energy>
    <i name="e_fr_energy">     -3.66220761 </i>
    <i name="e_wo_entrp">     -3.43568061 </i>
    <i name="e_0_energy">     -3.54894411 </i>
   </energy>
  </scstep>
  <scstep>
   <time name="dav">    0.65    0.65</time>
   <time name="total">    1.94    1.94</time>
   <energy>
    <i name="alphaZ">      0.02986872 </i>
    <i name="ewald">      8.61504491 </i>
    <i name="hartreedc">    -69.65496156 </i>
    <i name="XCdc">     14.67814488 </i>
    <i name="pawpsdc">     18.03774245 </i>
    <i name="pawaedc">    -18.09642061 </i>
    <i name="eentropy">     -0.22652700 </i>
    <i name="bandstr">    -56.61130347 </i>
    <i name="atom">     99.56620307 </i>
    <i name="e_fr_energy">     -3.66220861 </i>
    <i name="e_wo_entrp">     -3.43568161 </i>
    <i name="e_0_energy">     -3.54894511 </i>
   </energy>
  </scstep>
  <structure>
   <crystal>
    <varray name="basis" >
     <v>      15.00000000       0.00000000       0.00000000 </v>
     <v>       0.00000000      15.00000000       0.00000000 </v>
     <v>       0.00000000       0.00000000      23.20000000 </v>
    </varray>
    <i name="volume">   5220.00000000 </i>
    <varray name="rec_basis" >
     <v>       0.06666667      -0.00000000       0.00000000 </v>
     <v>       0.00000000       0.06666667       0.00000000 </v>
     <v>      -0.00000000      -0.00000000       0.04310345 </v>
    </varray>
   </crystal>
   <varray name="positions" >
    <v>       0.00000000       0.00000000       0.00000000 </v>
    <v>       0.00000000       0.00000000       0.12500000 </v>
    <v>       0.00000000       0.00000000       0.25000000 </v>
    <v>       0.00000000       0.00000000       0.37500000 </v>
    <v>       0.00000000       0.00000000       0.50000000 </v>
    <v>       0.00000000       0.00000000       0.62500000 </v>
    <v>       0.00000000       0.00000000       0.75000000 </v>
    <v>       0.00000000       0.00000000       0.87500000 </v>
   </varray>
  </structure>
  <varray name="forces" >
   <v>       0.00000000      -0.00000000      -0.00000000 </v>
   <v>      -0.00000000       0.00000000      -0.00000000 </v>
   <v>      -0.00000000       0.00000000      -0.00000000 </v>
   <v>      -0.00000000       0.00000000       0.00000000 </v>
   <v>       0.00000000       0.00000000       0.00000000 </v>
   <v>       0.00000000       0.00000000       0.00000000 </v>
   <v>      -0.00000000      -0.00000000       0.00000000 </v>
   <v>       0.00000000      -0.00000000      -0.00000000 </v>
  </varray>
  <varray name="stress" >
   <v>      -0.26538334      -0.00000000      -0.00000000 </v>
   <v>      -0.00000000      -0.26538334      -0.00000000 </v>
   <v>      -0.00000000      -0.00000000      -4.12468368 </v>
  </varray>
  <energy>
   <i name="e_fr_energy">     -3.66220861 </i>
   <i name="e_wo_entrp">     -3.54894511 </i>
   <i name="e_0_energy">     -0.22652700 </i>
  </energy>
  <time name="totalsc">   38.27   38.31</time>
  <eigenvalues>
   <array>
    <dimension dim="1">band</dimension>
    <dimension dim="2">kpoint</dimension>
    <dimension dim="3">spin</dimension>
    <field>eigene</field>
    <field>occ</field>
    <set>
     <set comment="spin 1">
      <set comment="kpoint 1">
       <r>   -7.3270    1.0000 </r>
       <r>   -7.1513    0.9996 </r>
       <r>   -7.1513    0.9996 </r>
       <r>   -6.6764    0.5004 </r>
       <r>   -6.6763    0.5003 </r>
       <r>   -6.0959    0.0000 </r>
       <r>   -6.0959    0.0000 </r>
       <r>   -5.8077    0.0000 </r>
       <r>   -0.1252    0.0000 </r>
       <r>   -0.0251    0.0000 </r>
       <r>   -0.0251    0.0000 </r>
       <r>    0.1450    0.0000 </r>
      </set>
     </set>
     <set comment="spin 2">
      <set comment="kpoint 1">
       <r>   -7.3270    1.0000 </r>
       <r>   -7.1513    0.9996 </r>
       <r>   -7.1513    0.9996 </r>
       <r>   -6.6763    0.5004 </r>
       <r>   -6.6763    0.5003 </r>
       <r>   -6.0959    0.0000 </r>
       <r>   -6.0959    0.0000 </r>
       <r>   -5.8077    0.0000 </r>
       <r>   -0.1247    0.0000 </r>
       <r>   -0.0249    0.0000 </r>
       <r>   -0.0249    0.0000 </r>
       <r>    0.1455    0.0000 </r>
      </set>
     </set>
    </set>
   </array>
  </eigenvalues>
  <separator name="orbital magnetization" >
   <v name="MAGDIPOLOUT">      0.00000000      0.00000000      0.00000000</v>
  </separator>
  <dos>
   <i name="efermi">     -6.67620588 </i>
   <total>
    <array>
     <dimension dim="1">gridpoints</dimension>
     <dimension dim="2">spin</dimension>
     <field>energy</field>
     <field>total</field>
     <field>integrated</field>
     <set>
      <set comment="spin 1">
       <r>    -9.3270     0.0000     0.0000 </r>
       <r>    -9.2888     0.0000     0.0000 </r>
       <r>    -9.2505     0.0000     0.0000 </r>
       <r>    -9.2123     0.0000     0.0000 </r>
       <r>    -9.1741     0.0000     0.0000 </r>
       <r>    -9.1358     0.0000     0.0000 </r>
       <r>    -9.0976     0.0000     0.0000 </r>
       <r>    -9.0593     0.0000     0.0000 </r>
       <r>    -9.0211     0.0000     0.0000 </r>
       <r>    -8.9828     0.0000     0.0000 </r>
       <r>    -8.9446     0.0000     0.0000 </r>
       <r>    -8.9064     0.0000     0.0000 </r>
       <r>    -8.8681     0.0000     0.0000 </r>
       <r>    -8.8299     0.0000     0.0000 </r>
       <r>    -8.7916     0.0000     0.0000 </r>
       <r>    -8.7534     0.0000     0.0000 </r>
       <r>    -8.7151     0.0000     0.0000 </r>
       <r>    -8.6769     0.0000     0.0000 </r>
       <r>    -8.6387     0.0000     0.0000 </r>
       <r>    -8.6004     0.0000     0.0000 </r>
       <r>    -8.5622     0.0000     0.0000 </r>
       <r>    -8.5239     0.0000     0.0000 </r>
       <r>    -8.4857     0.0000     0.0000 </r>
       <r>    -8.4475     0.0000     0.0000 </r>
       <r>    -8.4092     0.0000     0.0000 </r>
       <r>    -8.3710     0.0000     0.0000 </r>
       <r>    -8.3327     0.0000     0.0000 </r>
       <r>    -8.2945     0.0000     0.0000 </r>
       <r>    -8.2562     0.0000     0.0000 </r>
       <r>    -8.2180     0.0000     0.0000 </r>
       <r>    -8.1798     0.0000     0.0000 </r>
       <r>    -8.1415     0.0000     0.0000 </r>
       <r>    -8.1033     0.0000     0.0000 </r>
       <r>    -8.0650     0.0000     0.0000 </r>
       <r>    -8.0268     0.0000     0.0000 </r>
       <r>    -7.9886     0.0001     0.0000 </r>
       <r>    -7.9503     0.0002     0.0000 </r>
       <r>    -7.9121     0.0006     0.0000 </r>
       <r>    -7.8738     0.0020     0.0001 </r>
       <r>    -7.8356     0.0056     0.0003 </r>
       <r>    -7.7973     0.0148     0.0009 </r>
       <r>    -7.7591     0.0364     0.0023 </r>
       <r>    -7.7209     0.0833     0.0055 </r>
       <r>    -7.6826     0.1778     0.0123 </r>
       <r>    -7.6444     0.3541     0.0258 </r>
       <r>    -7.6061     0.6593     0.0510 </r>
       <r>    -7.5679     1.1493     0.0950 </r>
       <r>    -7.5297     1.8795     0.1668 </r>
       <r>    -7.4914     2.8919     0.2774 </r>
       <r>    -7.4532     4.1994     0.4380 </r>
       <r>    -7.4149     5.7755     0.6589 </r>
       <r>    -7.3767     7.5490     0.9476 </r>
       <r>    -7.3384     9.4063     1.3073 </r>
       <r>    -7.3002    11.1970     1.7355 </r>
       <r>    -7.2620    12.7433     2.2228 </r>
       <r>    -7.2237    13.8575     2.7528 </r>
       <r>    -7.1855    14.3710     3.3023 </r>
       <r>    -7.1472    14.1773     3.8445 </r>
       <r>    -7.1090    13.2748     4.3521 </r>
       <r>    -7.0708    11.7924     4.8031 </r>
       <r>    -7.0325     9.9810     5.1848 </r>
       <r>    -6.9943     8.1673     5.4971 </r>
       <r>    -6.9560     6.6840     5.7527 </r>
       <r>    -6.9178     5.7983     5.9745 </r>
       <r>    -6.8795     5.6550     6.1907 </r>
       <r>    -6.8413     6.2452     6.4296 </r>
       <r>    -6.8031     7.4033     6.7127 </r>
       <r>    -6.7648     8.8340     7.0505 </r>
       <r>    -6.7266    10.1722     7.4395 </r>
       <r>    -6.6883    11.0676     7.8628 </r>
       <r>    -6.6501    11.2735     8.2939 </r>
       <r>    -6.6118    10.7112     8.7035 </r>
       <r>    -6.5736     9.4849     9.0662 </r>
       <r>    -6.5354     7.8407     9.3661 </r>
       <r>    -6.4971     6.0903     9.5990 </r>
       <r>    -6.4589     4.5318     9.7723 </r>
       <r>    -6.4206     3.3958     9.9021 </r>
       <r>    -6.3824     2.8273    10.0102 </r>
       <r>    -6.3442     2.8910    10.1208 </r>
       <r>    -6.3059     3.5822    10.2578 </r>
       <r>    -6.2677     4.8256    10.4423 </r>
       <r>    -6.2294     6.4677    10.6897 </r>
       <r>    -6.1912     8.2761    11.0062 </r>
       <r>    -6.1529     9.9662    11.3873 </r>
       <r>    -6.1147    11.2615    11.8180 </r>
       <r>    -6.0765    11.9690    12.2757 </r>
       <r>    -6.0382    12.0377    12.7360 </r>
       <r>    -6.0000    11.5690    13.1784 </r>
       <r>    -5.9617    10.7671    13.5902 </r>
       <r>    -5.9235     9.8529    13.9670 </r>
       <r>    -5.8853     8.9807    14.3104 </r>
       <r>    -5.8470     8.1972    14.6239 </r>
       <r>    -5.8088     7.4564    14.9090 </r>
       <r>    -5.7705     6.6740    15.1643 </r>
       <r>    -5.7323     5.7891    15.3857 </r>
       <r>    -5.6940     4.8010    15.5693 </r>
       <r>    -5.6558     3.7683    15.7134 </r>
       <r>    -5.6176     2.7801    15.8197 </r>
       <r>    -5.5793     1.9196    15.8931 </r>
       <r>    -5.5411     1.2372    15.9404 </r>
       <r>    -5.5028     0.7432    15.9688 </r>
       <r>    -5.4646     0.4156    15.9847 </r>
       <r>    -5.4264     0.2163    15.9930 </r>
       <r>    -5.3881     0.1047    15.9970 </r>
       <r>    -5.3499     0.0472    15.9988 </r>
       <r>    -5.3116     0.0198    15.9995 </r>
       <r>    -5.2734     0.0077    15.9998 </r>
       <r>    -5.2351     0.0028    15.9999 </r>
       <r>    -5.1969     0.0009    16.0000 </r>
       <r>    -5.1587     0.0003    16.0000 </r>
       <r>    -5.1204     0.0001    16.0000 </r>
       <r>    -5.0822     0.0000    16.0000 </r>
       <r>    -5.0439     0.0000    16.0000 </r>
       <r>    -5.0057     0.0000    16.0000 </r>
       <r>    -4.9675     0.0000    16.0000 </r>
       <r>    -4.9292     0.0000    16.0000 </r>
       <r>    -4.8910     0.0000    16.0000 </r>
       <r>    -4.8527     0.0000    16.0000 </r>
       <r>    -4.8145     0.0000    16.0000 </r>
       <r>    -4.7762     0.0000    16.0000 </r>
       <r>    -4.7380     0.0000    16.0000 </r>
       <r>    -4.6998     0.0000    16.0000 </r>
       <r>    -4.6615     0.0000    16.0000 </r>
       <r>    -4.6233     0.0000    16.0000 </r>
       <r>    -4.5850     0.0000    16.0000 </r>
       <r>    -4.5468     0.0000    16.0000 </r>
       <r>    -4.5085     0.0000    16.0000 </r>
       <r>    -4.4703     0.0000    16.0000 </r>
       <r>    -4.4321     0.0000    16.0000 </r>
       <r>    -4.3938     0.0000    16.0000 </r>
       <r>    -4.3556     0.0000    16.0000 </r>
       <r>    -4.3173     0.0000    16.0000 </r>
       <r>    -4.2791     0.0000    16.0000 </r>
       <r>    -4.2409     0.0000    16.0000 </r>
       <r>    -4.2026     0.0000    16.0000 </r>
       <r>    -4.1644     0.0000    16.0000 </r>
       <r>    -4.1261     0.0000    16.0000 </r>
       <r>    -4.0879     0.0000    16.0000 </r>
       <r>    -4.0496     0.0000    16.0000 </r>
       <r>    -4.0114     0.0000    16.0000 </r>
       <r>    -3.9732     0.0000    16.0000 </r>
       <r>    -3.9349     0.0000    16.0000 </r>
       <r>    -3.8967     0.0000    16.0000 </r>
       <r>    -3.8584     0.0000    16.0000 </r>
       <r>    -3.8202     0.0000    16.0000 </r>
       <r>    -3.7820     0.0000    16.0000 </r>
       <r>    -3.7437     0.0000    16.0000 </r>
       <r>    -3.7055     0.0000    16.0000 </r>
       <r>    -3.6672     0.0000    16.0000 </r>
       <r>    -3.6290     0.0000    16.0000 </r>
       <r>    -3.5907     0.0000    16.0000 </r>
       <r>    -3.5525     0.0000    16.0000 </r>
       <r>    -3.5143     0.0000    16.0000 </r>
       <r>    -3.4760     0.0000    16.0000 </r>
       <r>    -3.4378     0.0000    16.0000 </r>
       <r>    -3.3995     0.0000    16.0000 </r>
       <r>    -3.3613     0.0000    16.0000 </r>
       <r>    -3.3231     0.0000    16.0000 </r>
       <r>    -3.2848     0.0000    16.0000 </r>
       <r>    -3.2466     0.0000    16.0000 </r>
       <r>    -3.2083     0.0000    16.0000 </r>
       <r>    -3.1701     0.0000    16.0000 </r>
       <r>    -3.1318     0.0000    16.0000 </r>
       <r>    -3.0936     0.0000    16.0000 </r>
       <r>    -3.0554     0.0000    16.0000 </r>
       <r>    -3.0171     0.0000    16.0000 </r>
       <r>    -2.9789     0.0000    16.0000 </r>
       <r>    -2.9406     0.0000    16.0000 </r>
       <r>    -2.9024     0.0000    16.0000 </r>
       <r>    -2.8642     0.0000    16.0000 </r>
       <r>    -2.8259     0.0000    16.0000 </r>
       <r>    -2.7877     0.0000    16.0000 </r>
       <r>    -2.7494     0.0000    16.0000 </r>
       <r>    -2.7112     0.0000    16.0000 </r>
       <r>    -2.6729     0.0000    16.0000 </r>
       <r>    -2.6347     0.0000    16.0000 </r>
       <r>    -2.5965     0.0000    16.0000 </r>
       <r>    -2.5582     0.0000    16.0000 </r>
       <r>    -2.5200     0.0000    16.0000 </r>
       <r>    -2.4817     0.0000    16.0000 </r>
       <r>    -2.4435     0.0000    16.0000 </r>
       <r>    -2.4052     0.0000    16.0000 </r>
       <r>    -2.3670     0.0000    16.0000 </r>
       <r>    -2.3288     0.0000    16.0000 </r>
       <r>    -2.2905     0.0000    16.0000 </r>
       <r>    -2.2523     0.0000    16.0000 </r>
       <r>    -2.2140     0.0000    16.0000 </r>
       <r>    -2.1758     0.0000    16.0000 </r>
       <r>    -2.1376     0.0000    16.0000 </r>
       <r>    -2.0993     0.0000    16.0000 </r>
       <r>    -2.0611     0.0000    16.0000 </r>
       <r>    -2.0228     0.0000    16.0000 </r>
       <r>    -1.9846     0.0000    16.0000 </r>
       <r>    -1.9463     0.0000    16.0000 </r>
       <r>    -1.9081     0.0000    16.0000 </r>
       <r>    -1.8699     0.0000    16.0000 </r>
       <r>    -1.8316     0.0000    16.0000 </r>
       <r>    -1.7934     0.0000    16.0000 </r>
       <r>    -1.7551     0.0000    16.0000 </r>
       <r>    -1.7169     0.0000    16.0000 </r>
       <r>    -1.6787     0.0000    16.0000 </r>
       <r>    -1.6404     0.0000    16.0000 </r>
       <r>    -1.6022     0.0000    16.0000 </r>
       <r>    -1.5639     0.0000    16.0000 </r>
       <r>    -1.5257     0.0000    16.0000 </r>
       <r>    -1.4874     0.0000    16.0000 </r>
       <r>    -1.4492     0.0000    16.0000 </r>
       <r>    -1.4110     0.0000    16.0000 </r>
       <r>    -1.3727     0.0000    16.0000 </r>
       <r>    -1.3345     0.0000    16.0000 </r>
       <r>    -1.2962     0.0000    16.0000 </r>
       <r>    -1.2580     0.0000    16.0000 </r>
       <r>    -1.2198     0.0000    16.0000 </r>
       <r>    -1.1815     0.0000    16.0000 </r>
       <r>    -1.1433     0.0000    16.0000 </r>
       <r>    -1.1050     0.0000    16.0000 </r>
       <r>    -1.0668     0.0000    16.0000 </r>
       <r>    -1.0285     0.0000    16.0000 </r>
       <r>    -0.9903     0.0000    16.0000 </r>
       <r>    -0.9521     0.0000    16.0000 </r>
       <r>    -0.9138     0.0000    16.0000 </r>
       <r>    -0.8756     0.0000    16.0000 </r>
       <r>    -0.8373     0.0000    16.0000 </r>
       <r>    -0.7991     0.0000    16.0000 </r>
       <r>    -0.7609     0.0001    16.0000 </r>
       <r>    -0.7226     0.0005    16.0000 </r>
       <r>    -0.6844     0.0015    16.0001 </r>
       <r>    -0.6461     0.0044    16.0003 </r>
       <r>    -0.6079     0.0122    16.0007 </r>
       <r>    -0.5696     0.0312    16.0019 </r>
       <r>    -0.5314     0.0747    16.0048 </r>
       <r>    -0.4932     0.1670    16.0112 </r>
       <r>    -0.4549     0.3493    16.0245 </r>
       <r>    -0.4167     0.6835    16.0507 </r>
       <r>    -0.3784     1.2529    16.0986 </r>
       <r>    -0.3402     2.1529    16.1809 </r>
       <r>    -0.3019     3.4705    16.3136 </r>
       <r>    -0.2637     5.2538    16.5145 </r>
       <r>    -0.2255     7.4764    16.8004 </r>
       <r>    -0.1872    10.0122    17.1833 </r>
       <r>    -0.1490    12.6346    17.6665 </r>
       <r>    -0.1107    15.0478    18.2420 </r>
       <r>    -0.0725    16.9474    18.8901 </r>
       <r>    -0.0343    18.0921    19.5819 </r>
       <r>     0.0040    18.3586    20.2840 </r>
       <r>     0.0422    17.7628    20.9633 </r>
       <r>     0.0805    16.4384    21.5919 </r>
       <r>     0.1187    14.5901    22.1499 </r>
       <r>     0.1570    12.4411    22.6256 </r>
       <r>     0.1952    10.1952    23.0155 </r>
       <r>     0.2334     8.0188    23.3222 </r>
       <r>     0.2717     6.0370    23.5530 </r>
       <r>     0.3099     4.3343    23.7188 </r>
       <r>     0.3482     2.9553    23.8318 </r>
       <r>     0.3864     1.9059    23.9047 </r>
       <r>     0.4246     1.1583    23.9490 </r>
       <r>     0.4629     0.6613    23.9743 </r>
       <r>     0.5011     0.3538    23.9878 </r>
       <r>     0.5394     0.1770    23.9946 </r>
       <r>     0.5776     0.0827    23.9977 </r>
       <r>     0.6159     0.0360    23.9991 </r>
       <r>     0.6541     0.0146    23.9997 </r>
       <r>     0.6923     0.0055    23.9999 </r>
       <r>     0.7306     0.0020    24.0000 </r>
       <r>     0.7688     0.0006    24.0000 </r>
       <r>     0.8071     0.0002    24.0000 </r>
       <r>     0.8453     0.0001    24.0000 </r>
       <r>     0.8835     0.0000    24.0000 </r>
       <r>     0.9218     0.0000    24.0000 </r>
       <r>     0.9600     0.0000    24.0000 </r>
       <r>     0.9983     0.0000    24.0000 </r>
       <r>     1.0365     0.0000    24.0000 </r>
       <r>     1.0748     0.0000    24.0000 </r>
       <r>     1.1130     0.0000    24.0000 </r>
       <r>     1.1512     0.0000    24.0000 </r>
       <r>     1.1895     0.0000    24.0000 </r>
       <r>     1.2277     0.0000    24.0000 </r>
       <r>     1.2660     0.0000    24.0000 </r>
       <r>     1.3042     0.0000    24.0000 </r>
       <r>     1.3424     0.0000    24.0000 </r>
       <r>     1.3807     0.0000    24.0000 </r>
       <r>     1.4189     0.0000    24.0000 </r>
       <r>     1.4572     0.0000    24.0000 </r>
       <r>     1.4954     0.0000    24.0000 </r>
       <r>     1.5337     0.0000    24.0000 </r>
       <r>     1.5719     0.0000    24.0000 </r>
       <r>     1.6101     0.0000    24.0000 </r>
       <r>     1.6484     0.0000    24.0000 </r>
       <r>     1.6866     0.0000    24.0000 </r>
       <r>     1.7249     0.0000    24.0000 </r>
       <r>     1.7631     0.0000    24.0000 </r>
       <r>     1.8014     0.0000    24.0000 </r>
       <r>     1.8396     0.0000    24.0000 </r>
       <r>     1.8778     0.0000    24.0000 </r>
       <r>     1.9161     0.0000    24.0000 </r>
       <r>     1.9543     0.0000    24.0000 </r>
       <r>     1.9926     0.0000    24.0000 </r>
       <r>     2.0308     0.0000    24.0000 </r>
       <r>     2.0690     0.0000    24.0000 </r>
       <r>     2.1073     0.0000    24.0000 </r>
       <r>     2.1455     0.0000    24.0000 </r>
      </set>
      <set comment="spin 2">
       <r>    -9.3270     0.0000     0.0000 </r>
       <r>    -9.2888     0.0000     0.0000 </r>
       <r>    -9.2505     0.0000     0.0000 </r>
       <r>    -9.2123     0.0000     0.0000 </r>
       <r>    -9.1741     0.0000     0.0000 </r>
       <r>    -9.1358     0.0000     0.0000 </r>
       <r>    -9.0976     0.0000     0.0000 </r>
       <r>    -9.0593     0.0000     0.0000 </r>
       <r>    -9.0211     0.0000     0.0000 </r>
       <r>    -8.9828     0.0000     0.0000 </r>
       <r>    -8.9446     0.0000     0.0000 </r>
       <r>    -8.9064     0.0000     0.0000 </r>
       <r>    -8.8681     0.0000     0.0000 </r>
       <r>    -8.8299     0.0000     0.0000 </r>
       <r>    -8.7916     0.0000     0.0000 </r>
       <r>    -8.7534     0.0000     0.0000 </r>
       <r>    -8.7151     0.0000     0.0000 </r>
       <r>    -8.6769     0.0000     0.0000 </r>
       <r>    -8.6387     0.0000     0.0000 </r>
       <r>    -8.6004     0.0000     0.0000 </r>
       <r>    -8.5622     0.0000     0.0000 </r>
       <r>    -8.5239     0.0000     0.0000 </r>
       <r>    -8.4857     0.0000     0.0000 </r>
       <r>    -8.4475     0.0000     0.0000 </r>
       <r>    -8.4092     0.0000     0.0000 </r>
       <r>    -8.3710     0.0000     0.0000 </r>
       <r>    -8.3327     0.0000     0.0000 </r>
       <r>    -8.2945     0.0000     0.0000 </r>
       <r>    -8.2562     0.0000     0.0000 </r>
       <r>    -8.2180     0.0000     0.0000 </r>
       <r>    -8.1798     0.0000     0.0000 </r>
       <r>    -8.1415     0.0000     0.0000 </r>
       <r>    -8.1033     0.0000     0.0000 </r>
       <r>    -8.0650     0.0000     0.0000 </r>
       <r>    -8.0268     0.0000     0.0000 </r>
       <r>    -7.9886     0.0001     0.0000 </r>
       <r>    -7.9503     0.0002     0.0000 </r>
       <r>    -7.9121     0.0006     0.0000 </r>
       <r>    -7.8738     0.0020     0.0001 </r>
       <r>    -7.8356     0.0056     0.0003 </r>
       <r>    -7.7973     0.0148     0.0009 </r>
       <r>    -7.7591     0.0364     0.0023 </r>
       <r>    -7.7209     0.0833     0.0055 </r>
       <r>    -7.6826     0.1777     0.0123 </r>
       <r>    -7.6444     0.3541     0.0258 </r>
       <r>    -7.6061     0.6593     0.0510 </r>
       <r>    -7.5679     1.1492     0.0950 </r>
       <r>    -7.5297     1.8795     0.1668 </r>
       <r>    -7.4914     2.8918     0.2774 </r>
       <r>    -7.4532     4.1994     0.4380 </r>
       <r>    -7.4149     5.7754     0.6589 </r>
       <r>    -7.3767     7.5489     0.9476 </r>
       <r>    -7.3384     9.4062     1.3073 </r>
       <r>    -7.3002    11.1969     1.7355 </r>
       <r>    -7.2620    12.7432     2.2228 </r>
       <r>    -7.2237    13.8574     2.7527 </r>
       <r>    -7.1855    14.3710     3.3023 </r>
       <r>    -7.1472    14.1773     3.8445 </r>
       <r>    -7.1090    13.2748     4.3521 </r>
       <r>    -7.0708    11.7925     4.8031 </r>
       <r>    -7.0325     9.9811     5.1848 </r>
       <r>    -6.9943     8.1674     5.4971 </r>
       <r>    -6.9560     6.6841     5.7527 </r>
       <r>    -6.9178     5.7983     5.9745 </r>
       <r>    -6.8795     5.6550     6.1907 </r>
       <r>    -6.8413     6.2452     6.4296 </r>
       <r>    -6.8031     7.4032     6.7127 </r>
       <r>    -6.7648     8.8339     7.0505 </r>
       <r>    -6.7266    10.1722     7.4395 </r>
       <r>    -6.6883    11.0676     7.8627 </r>
       <r>    -6.6501    11.2735     8.2939 </r>
       <r>    -6.6118    10.7113     8.7035 </r>
       <r>    -6.5736     9.4850     9.0662 </r>
       <r>    -6.5354     7.8408     9.3660 </r>
       <r>    -6.4971     6.0904     9.5989 </r>
       <r>    -6.4589     4.5319     9.7723 </r>
       <r>    -6.4206     3.3959     9.9021 </r>
       <r>    -6.3824     2.8273    10.0102 </r>
       <r>    -6.3442     2.8910    10.1208 </r>
       <r>    -6.3059     3.5821    10.2578 </r>
       <r>    -6.2677     4.8256    10.4423 </r>
       <r>    -6.2294     6.4677    10.6897 </r>
       <r>    -6.1912     8.2760    11.0061 </r>
       <r>    -6.1529     9.9661    11.3873 </r>
       <r>    -6.1147    11.2615    11.8179 </r>
       <r>    -6.0765    11.9690    12.2756 </r>
       <r>    -6.0382    12.0377    12.7360 </r>
       <r>    -6.0000    11.5690    13.1784 </r>
       <r>    -5.9617    10.7672    13.5902 </r>
       <r>    -5.9235     9.8529    13.9670 </r>
       <r>    -5.8853     8.9807    14.3104 </r>
       <r>    -5.8470     8.1973    14.6239 </r>
       <r>    -5.8088     7.4564    14.9090 </r>
       <r>    -5.7705     6.6740    15.1643 </r>
       <r>    -5.7323     5.7892    15.3856 </r>
       <r>    -5.6940     4.8011    15.5692 </r>
       <r>    -5.6558     3.7683    15.7134 </r>
       <r>    -5.6176     2.7802    15.8197 </r>
       <r>    -5.5793     1.9196    15.8931 </r>
       <r>    -5.5411     1.2373    15.9404 </r>
       <r>    -5.5028     0.7432    15.9688 </r>
       <r>    -5.4646     0.4156    15.9847 </r>
       <r>    -5.4264     0.2163    15.9930 </r>
       <r>    -5.3881     0.1047    15.9970 </r>
       <r>    -5.3499     0.0472    15.9988 </r>
       <r>    -5.3116     0.0198    15.9995 </r>
       <r>    -5.2734     0.0077    15.9998 </r>
       <r>    -5.2351     0.0028    15.9999 </r>
       <r>    -5.1969     0.0009    16.0000 </r>
       <r>    -5.1587     0.0003    16.0000 </r>
       <r>    -5.1204     0.0001    16.0000 </r>
       <r>    -5.0822     0.0000    16.0000 </r>
       <r>    -5.0439     0.0000    16.0000 </r>
       <r>    -5.0057     0.0000    16.0000 </r>
       <r>    -4.9675     0.0000    16.0000 </r>
       <r>    -4.9292     0.0000    16.0000 </r>
       <r>    -4.8910     0.0000    16.0000 </r>
       <r>    -4.8527     0.0000    16.0000 </r>
       <r>    -4.8145     0.0000    16.0000 </r>
       <r>    -4.7762     0.0000    16.0000 </r>
       <r>    -4.7380     0.0000    16.0000 </r>
       <r>    -4.6998     0.0000    16.0000 </r>
       <r>    -4.6615     0.0000    16.0000 </r>
       <r>    -4.6233     0.0000    16.0000 </r>
       <r>    -4.5850     0.0000    16.0000 </r>
       <r>    -4.5468     0.0000    16.0000 </r>
       <r>    -4.5085     0.0000    16.0000 </r>
       <r>    -4.4703     0.0000    16.0000 </r>
       <r>    -4.4321     0.0000    16.0000 </r>
       <r>    -4.3938     0.0000    16.0000 </r>
       <r>    -4.3556     0.0000    16.0000 </r>
       <r>    -4.3173     0.0000    16.0000 </r>
       <r>    -4.2791     0.0000    16.0000 </r>
       <r>    -4.2409     0.0000    16.0000 </r>
       <r>    -4.2026     0.0000    16.0000 </r>
       <r>    -4.1644     0.0000    16.0000 </r>
       <r>    -4.1261     0.0000    16.0000 </r>
       <r>    -4.0879     0.0000    16.0000 </r>
       <r>    -4.0496     0.0000    16.0000 </r>
       <r>    -4.0114     0.0000    16.0000 </r>
       <r>    -3.9732     0.0000    16.0000 </r>
       <r>    -3.9349     0.0000    16.0000 </r>
       <r>    -3.8967     0.0000    16.0000 </r>
       <r>    -3.8584     0.0000    16.0000 </r>
       <r>    -3.8202     0.0000    16.0000 </r>
       <r>    -3.7820     0.0000    16.0000 </r>
       <r>    -3.7437     0.0000    16.0000 </r>
       <r>    -3.7055     0.0000    16.0000 </r>
       <r>    -3.6672     0.0000    16.0000 </r>
       <r>    -3.6290     0.0000    16.0000 </r>
       <r>    -3.5907     0.0000    16.0000 </r>
       <r>    -3.5525     0.0000    16.0000 </r>
       <r>    -3.5143     0.0000    16.0000 </r>
       <r>    -3.4760     0.0000    16.0000 </r>
       <r>    -3.4378     0.0000    16.0000 </r>
       <r>    -3.3995     0.0000    16.0000 </r>
       <r>    -3.3613     0.0000    16.0000 </r>
       <r>    -3.3231     0.0000    16.0000 </r>
       <r>    -3.2848     0.0000    16.0000 </r>
       <r>    -3.2466     0.0000    16.0000 </r>
       <r>    -3.2083     0.0000    16.0000 </r>
       <r>    -3.1701     0.0000    16.0000 </r>
       <r>    -3.1318     0.0000    16.0000 </r>
       <r>    -3.0936     0.0000    16.0000 </r>
       <r>    -3.0554     0.0000    16.0000 </r>
       <r>    -3.0171     0.0000    16.0000 </r>
       <r>    -2.9789     0.0000    16.0000 </r>
       <r>    -2.9406     0.0000    16.0000 </r>
       <r>    -2.9024     0.0000    16.0000 </r>
       <r>    -2.8642     0.0000    16.0000 </r>
       <r>    -2.8259     0.0000    16.0000 </r>
       <r>    -2.7877     0.0000    16.0000 </r>
       <r>    -2.7494     0.0000    16.0000 </r>
       <r>    -2.7112     0.0000    16.0000 </r>
       <r>    -2.6729     0.0000    16.0000 </r>
       <r>    -2.6347     0.0000    16.0000 </r>
       <r>    -2.5965     0.0000    16.0000 </r>
       <r>    -2.5582     0.0000    16.0000 </r>
       <r>    -2.5200     0.0000    16.0000 </r>
       <r>    -2.4817     0.0000    16.0000 </r>
       <r>    -2.4435     0.0000    16.0000 </r>
       <r>    -2.4052     0.0000    16.0000 </r>
       <r>    -2.3670     0.0000    16.0000 </r>
       <r>    -2.3288     0.0000    16.0000 </r>
       <r>    -2.2905     0.0000    16.0000 </r>
       <r>    -2.2523     0.0000    16.0000 </r>
       <r>    -2.2140     0.0000    16.0000 </r>
       <r>    -2.1758     0.0000    16.0000 </r>
       <r>    -2.1376     0.0000    16.0000 </r>
       <r>    -2.0993     0.0000    16.0000 </r>
       <r>    -2.0611     0.0000    16.0000 </r>
       <r>    -2.0228     0.0000    16.0000 </r>
       <r>    -1.9846     0.0000    16.0000 </r>
       <r>    -1.9463     0.0000    16.0000 </r>
       <r>    -1.9081     0.0000    16.0000 </r>
       <r>    -1.8699     0.0000    16.0000 </r>
       <r>    -1.8316     0.0000    16.0000 </r>
       <r>    -1.7934     0.0000    16.0000 </r>
       <r>    -1.7551     0.0000    16.0000 </r>
       <r>    -1.7169     0.0000    16.0000 </r>
       <r>    -1.6787     0.0000    16.0000 </r>
       <r>    -1.6404     0.0000    16.0000 </r>
       <r>    -1.6022     0.0000    16.0000 </r>
       <r>    -1.5639     0.0000    16.0000 </r>
       <r>    -1.5257     0.0000    16.0000 </r>
       <r>    -1.4874     0.0000    16.0000 </r>
       <r>    -1.4492     0.0000    16.0000 </r>
       <r>    -1.4110     0.0000    16.0000 </r>
       <r>    -1.3727     0.0000    16.0000 </r>
       <r>    -1.3345     0.0000    16.0000 </r>
       <r>    -1.2962     0.0000    16.0000 </r>
       <r>    -1.2580     0.0000    16.0000 </r>
       <r>    -1.2198     0.0000    16.0000 </r>
       <r>    -1.1815     0.0000    16.0000 </r>
       <r>    -1.1433     0.0000    16.0000 </r>
       <r>    -1.1050     0.0000    16.0000 </r>
       <r>    -1.0668     0.0000    16.0000 </r>
       <r>    -1.0285     0.0000    16.0000 </r>
       <r>    -0.9903     0.0000    16.0000 </r>
       <r>    -0.9521     0.0000    16.0000 </r>
       <r>    -0.9138     0.0000    16.0000 </r>
       <r>    -0.8756     0.0000    16.0000 </r>
       <r>    -0.8373     0.0000    16.0000 </r>
       <r>    -0.7991     0.0000    16.0000 </r>
       <r>    -0.7609     0.0001    16.0000 </r>
       <r>    -0.7226     0.0005    16.0000 </r>
       <r>    -0.6844     0.0015    16.0001 </r>
       <r>    -0.6461     0.0044    16.0002 </r>
       <r>    -0.6079     0.0120    16.0007 </r>
       <r>    -0.5696     0.0308    16.0019 </r>
       <r>    -0.5314     0.0738    16.0047 </r>
       <r>    -0.4932     0.1653    16.0110 </r>
       <r>    -0.4549     0.3461    16.0243 </r>
       <r>    -0.4167     0.6782    16.0502 </r>
       <r>    -0.3784     1.2444    16.0978 </r>
       <r>    -0.3402     2.1403    16.1796 </r>
       <r>    -0.3019     3.4535    16.3117 </r>
       <r>    -0.2637     5.2327    16.5118 </r>
       <r>    -0.2255     7.4525    16.7968 </r>
       <r>    -0.1872     9.9876    17.1788 </r>
       <r>    -0.1490    12.6119    17.6611 </r>
       <r>    -0.1107    15.0294    18.2358 </r>
       <r>    -0.0725    16.9352    18.8834 </r>
       <r>    -0.0343    18.0866    19.5751 </r>
       <r>     0.0040    18.3597    20.2772 </r>
       <r>     0.0422    17.7695    20.9568 </r>
       <r>     0.0805    16.4498    21.5858 </r>
       <r>     0.1187    14.6052    22.1444 </r>
       <r>     0.1570    12.4591    22.6208 </r>
       <r>     0.1952    10.2151    23.0115 </r>
       <r>     0.2334     8.0395    23.3189 </r>
       <r>     0.2717     6.0571    23.5505 </r>
       <r>     0.3099     4.3524    23.7170 </r>
       <r>     0.3482     2.9704    23.8306 </r>
       <r>     0.3864     1.9175    23.9039 </r>
       <r>     0.4246     1.1666    23.9485 </r>
       <r>     0.4629     0.6667    23.9740 </r>
       <r>     0.5011     0.3571    23.9877 </r>
       <r>     0.5394     0.1789    23.9945 </r>
       <r>     0.5776     0.0837    23.9977 </r>
       <r>     0.6159     0.0365    23.9991 </r>
       <r>     0.6541     0.0148    23.9997 </r>
       <r>     0.6923     0.0056    23.9999 </r>
       <r>     0.7306     0.0020    24.0000 </r>
       <r>     0.7688     0.0007    24.0000 </r>
       <r>     0.8071     0.0002    24.0000 </r>
       <r>     0.8453     0.0001    24.0000 </r>
       <r>     0.8835     0.0000    24.0000 </r>
       <r>     0.9218     0.0000    24.0000 </r>
       <r>     0.9600     0.0000    24.0000 </r>
       <r>     0.9983     0.0000    24.0000 </r>
       <r>     1.0365     0.0000    24.0000 </r>
       <r>     1.0748     0.0000    24.0000 </r>
       <r>     1.1130     0.0000    24.0000 </r>
       <r>     1.1512     0.0000    24.0000 </r>
       <r>     1.1895     0.0000    24.0000 </r>
       <r>     1.2277     0.0000    24.0000 </r>
       <r>     1.2660     0.0000    24.0000 </r>
       <r>     1.3042     0.0000    24.0000 </r>
       <r>     1.3424     0.0000    24.0000 </r>
       <r>     1.3807     0.0000    24.0000 </r>
       <r>     1.4189     0.0000    24.0000 </r>
       <r>     1.4572     0.0000    24.0000 </r>
       <r>     1.4954     0.0000    24.0000 </r>
       <r>     1.5337     0.0000    24.0000 </r>
       <r>     1.5719     0.0000    24.0000 </r>
       <r>     1.6101     0.0000    24.0000 </r>
       <r>     1.6484     0.0000    24.0000 </r>
       <r>     1.6866     0.0000    24.0000 </r>
       <r>     1.7249     0.0000    24.0000 </r>
       <r>     1.7631     0.0000    24.0000 </r>
       <r>     1.8014     0.0000    24.0000 </r>
       <r>     1.8396     0.0000    24.0000 </r>
       <r>     1.8778     0.0000    24.0000 </r>
       <r>     1.9161     0.0000    24.0000 </r>
       <r>     1.9543     0.0000    24.0000 </r>
       <r>     1.9926     0.0000    24.0000 </r>
       <r>     2.0308     0.0000    24.0000 </r>
       <r>     2.0690     0.0000    24.0000 </r>
       <r>     2.1073     0.0000    24.0000 </r>
       <r>     2.1455     0.0000    24.0000 </r>
      </set>
     </set>
    </array>
   </total>
  </dos>
 </calculation>
 <structure name="finalpos" >
  <crystal>
   <varray name="basis" >
    <v>      15.00000000       0.00000000       0.00000000 </v>
    <v>       0.00000000      15.00000000       0.00000000 </v>
    <v>       0.00000000       0.00000000      23.20000000 </v>
   </varray>
   <i name="volume">   5220.00000000 </i>
   <varray name="rec_basis" >
    <v>       0.06666667      -0.00000000       0.00000000 </v>
    <v>       0.00000000       0.06666667       0.00000000 </v>
    <v>      -0.00000000      -0.00000000       0.04310345 </v>
   </varray>
  </crystal>
  <varray name="positions" >
   <v>       0.00000000       0.00000000       0.00000000 </v>
   <v>       0.00000000       0.00000000       0.12500000 </v>
   <v>       0.00000000       0.00000000       0.25000000 </v>
   <v>       0.00000000       0.00000000       0.37500000 </v>
   <v>       0.00000000       0.00000000       0.50000000 </v>
   <v>       0.00000000       0.00000000       0.62500000 </v>
   <v>       0.00000000       0.00000000       0.75000000 </v>
   <v>       0.00000000       0.00000000       0.87500000 </v>
  </varray>
 </structure>
</modeling>
