   8   8   0   0
  0.6075000E+03  0.1500000E-08  0.1500000E-08  0.2160000E-08  0.5000000E-15
  1.000000000000000E-004
  CAR 
 unknown system                          
      2.19291936     -9.52967718  301     -6.69232601      1.00000000
     -9.530  0.0000E+00  0.0000E+00  0.0000E+00  0.0000E+00
     -9.491  0.0000E+00  0.0000E+00  0.0000E+00  0.0000E+00
     -9.452  0.0000E+00  0.0000E+00  0.0000E+00  0.0000E+00
     -9.412  0.0000E+00  0.0000E+00  0.0000E+00  0.0000E+00
     -9.373  0.0000E+00  0.0000E+00  0.0000E+00  0.0000E+00
     -9.334  0.0000E+00  0.0000E+00  0.0000E+00  0.0000E+00
     -9.295  0.0000E+00  0.0000E+00  0.0000E+00  0.0000E+00
     -9.256  0.0000E+00  0.0000E+00  0.0000E+00  0.0000E+00
     -9.217  0.0000E+00  0.0000E+00  0.0000E+00  0.0000E+00
     -9.178  0.0000E+00  0.0000E+00  0.0000E+00  0.0000E+00
     -9.139  0.0000E+00  0.0000E+00  0.0000E+00  0.0000E+00
     -9.100  0.0000E+00  0.0000E+00  0.0000E+00  0.0000E+00
     -9.061  0.0000E+00  0.0000E+00  0.0000E+00  0.0000E+00
     -9.022  0.0000E+00  0.0000E+00  0.0000E+00  0.0000E+00
     -8.983  0.0000E+00  0.0000E+00  0.0000E+00  0.0000E+00
     -8.944  0.0000E+00  0.0000E+00  0.0000E+00  0.0000E+00
     -8.904  0.0000E+00  0.0000E+00  0.0000E+00  0.0000E+00
     -8.865  0.0000E+00  0.0000E+00  0.0000E+00  0.0000E+00
     -8.826  0.0000E+00  0.0000E+00  0.0000E+00  0.0000E+00
     -8.787  0.0000E+00  0.0000E+00  0.0000E+00  0.0000E+00
     -8.748  0.0000E+00  0.0000E+00  0.0000E+00  0.0000E+00
     -8.709  0.2841E-14  0.2841E-14  0.1110E-15  0.1110E-15
     -8.670  0.1705E-13  0.1705E-13  0.7772E-15  0.7772E-15
     -8.631  0.1563E-12  0.1563E-12  0.6883E-14  0.6883E-14
     -8.592  0.1327E-11  0.1327E-11  0.5873E-13  0.5873E-13
     -8.553  0.1045E-10  0.1045E-10  0.4672E-12  0.4671E-12
     -8.514  0.7623E-10  0.7622E-10  0.3446E-11  0.3446E-11
     -8.475  0.5153E-09  0.5153E-09  0.2358E-10  0.2358E-10
     -8.436  0.3229E-08  0.3229E-08  0.1498E-09  0.1498E-09
     -8.396  0.1875E-07  0.1875E-07  0.8826E-09  0.8825E-09
     -8.357  0.1010E-06  0.1010E-06  0.4828E-08  0.4827E-08
     -8.318  0.5038E-06  0.5038E-06  0.2451E-07  0.2451E-07
     -8.279  0.2330E-05  0.2330E-05  0.1156E-06  0.1156E-06
     -8.240  0.9989E-05  0.9988E-05  0.5059E-06  0.5059E-06
     -8.201  0.3970E-04  0.3969E-04  0.2057E-05  0.2057E-05
     -8.162  0.1462E-03  0.1462E-03  0.7771E-05  0.7770E-05
     -8.123  0.4993E-03  0.4993E-03  0.2728E-04  0.2728E-04
     -8.084  0.1580E-02  0.1580E-02  0.8904E-04  0.8903E-04
     -8.045  0.4638E-02  0.4638E-02  0.2703E-03  0.2703E-03
     -8.006  0.1262E-01  0.1262E-01  0.7634E-03  0.7634E-03
     -7.967  0.3185E-01  0.3185E-01  0.2008E-02  0.2008E-02
     -7.928  0.7454E-01  0.7454E-01  0.4921E-02  0.4920E-02
     -7.889  0.1619E+00  0.1619E+00  0.1125E-01  0.1125E-01
     -7.849  0.3264E+00  0.3264E+00  0.2400E-01  0.2400E-01
     -7.810  0.6117E+00  0.6117E+00  0.4790E-01  0.4790E-01
     -7.771  0.1067E+01  0.1066E+01  0.8958E-01  0.8958E-01
     -7.732  0.1734E+01  0.1733E+01  0.1573E+00  0.1573E+00
     -7.693  0.2634E+01  0.2634E+01  0.2602E+00  0.2602E+00
     -7.654  0.3757E+01  0.3757E+01  0.4070E+00  0.4070E+00
     -7.615  0.5056E+01  0.5056E+01  0.6046E+00  0.6046E+00
     -7.576  0.6463E+01  0.6463E+01  0.8572E+00  0.8571E+00
     -7.537  0.7908E+01  0.7908E+01  0.1166E+01  0.1166E+01
     -7.498  0.9330E+01  0.9330E+01  0.1531E+01  0.1531E+01
     -7.459  0.1067E+02  0.1067E+02  0.1948E+01  0.1948E+01
     -7.420  0.1185E+02  0.1185E+02  0.2411E+01  0.2411E+01
     -7.381  0.1275E+02  0.1275E+02  0.2909E+01  0.2909E+01
     -7.341  0.1322E+02  0.1322E+02  0.3426E+01  0.3426E+01
     -7.302  0.1311E+02  0.1311E+02  0.3938E+01  0.3938E+01
     -7.263  0.1233E+02  0.1233E+02  0.4420E+01  0.4420E+01
     -7.224  0.1095E+02  0.1095E+02  0.4847E+01  0.4847E+01
     -7.185  0.9122E+01  0.9122E+01  0.5204E+01  0.5204E+01
     -7.146  0.7125E+01  0.7125E+01  0.5482E+01  0.5482E+01
     -7.107  0.5238E+01  0.5238E+01  0.5687E+01  0.5687E+01
     -7.068  0.3695E+01  0.3695E+01  0.5831E+01  0.5831E+01
     -7.029  0.2652E+01  0.2652E+01  0.5935E+01  0.5935E+01
     -6.990  0.2189E+01  0.2189E+01  0.6020E+01  0.6020E+01
     -6.951  0.2332E+01  0.2332E+01  0.6112E+01  0.6112E+01
     -6.912  0.3068E+01  0.3068E+01  0.6231E+01  0.6231E+01
     -6.873  0.4332E+01  0.4332E+01  0.6401E+01  0.6401E+01
     -6.833  0.5991E+01  0.5991E+01  0.6635E+01  0.6635E+01
     -6.794  0.7817E+01  0.7817E+01  0.6940E+01  0.6940E+01
     -6.755  0.9507E+01  0.9507E+01  0.7312E+01  0.7312E+01
     -6.716  0.1074E+02  0.1074E+02  0.7731E+01  0.7731E+01
     -6.677  0.1124E+02  0.1124E+02  0.8171E+01  0.8171E+01
     -6.638  0.1092E+02  0.1092E+02  0.8597E+01  0.8597E+01
     -6.599  0.9826E+01  0.9826E+01  0.8981E+01  0.8981E+01
     -6.560  0.8198E+01  0.8198E+01  0.9302E+01  0.9302E+01
     -6.521  0.6341E+01  0.6341E+01  0.9549E+01  0.9549E+01
     -6.482  0.4547E+01  0.4547E+01  0.9727E+01  0.9727E+01
     -6.443  0.3027E+01  0.3027E+01  0.9845E+01  0.9845E+01
     -6.404  0.1879E+01  0.1879E+01  0.9919E+01  0.9919E+01
     -6.365  0.1111E+01  0.1111E+01  0.9962E+01  0.9962E+01
     -6.326  0.6778E+00  0.6778E+00  0.9989E+01  0.9989E+01
     -6.286  0.5320E+00  0.5320E+00  0.1001E+02  0.1001E+02
     -6.247  0.6515E+00  0.6515E+00  0.1003E+02  0.1003E+02
     -6.208  0.1054E+01  0.1054E+01  0.1008E+02  0.1008E+02
     -6.169  0.1788E+01  0.1788E+01  0.1015E+02  0.1015E+02
     -6.130  0.2898E+01  0.2898E+01  0.1026E+02  0.1026E+02
     -6.091  0.4385E+01  0.4385E+01  0.1043E+02  0.1043E+02
     -6.052  0.6161E+01  0.6161E+01  0.1067E+02  0.1067E+02
     -6.013  0.8029E+01  0.8029E+01  0.1098E+02  0.1098E+02
     -5.974  0.9704E+01  0.9704E+01  0.1136E+02  0.1136E+02
     -5.935  0.1089E+02  0.1089E+02  0.1179E+02  0.1179E+02
     -5.896  0.1135E+02  0.1135E+02  0.1223E+02  0.1223E+02
     -5.857  0.1103E+02  0.1103E+02  0.1266E+02  0.1266E+02
     -5.818  0.1005E+02  0.1005E+02  0.1306E+02  0.1306E+02
     -5.778  0.8710E+01  0.8710E+01  0.1340E+02  0.1340E+02
     -5.739  0.7346E+01  0.7347E+01  0.1368E+02  0.1368E+02
     -5.700  0.6265E+01  0.6265E+01  0.1393E+02  0.1393E+02
     -5.661  0.5633E+01  0.5633E+01  0.1415E+02  0.1415E+02
     -5.622  0.5453E+01  0.5453E+01  0.1436E+02  0.1436E+02
     -5.583  0.5579E+01  0.5579E+01  0.1458E+02  0.1458E+02
     -5.544  0.5786E+01  0.5786E+01  0.1481E+02  0.1481E+02
     -5.505  0.5854E+01  0.5854E+01  0.1503E+02  0.1503E+02
     -5.466  0.5636E+01  0.5636E+01  0.1526E+02  0.1526E+02
     -5.427  0.5093E+01  0.5093E+01  0.1545E+02  0.1545E+02
     -5.388  0.4291E+01  0.4291E+01  0.1562E+02  0.1562E+02
     -5.349  0.3360E+01  0.3361E+01  0.1575E+02  0.1575E+02
     -5.310  0.2443E+01  0.2443E+01  0.1585E+02  0.1585E+02
     -5.270  0.1647E+01  0.1647E+01  0.1591E+02  0.1591E+02
     -5.231  0.1029E+01  0.1029E+01  0.1595E+02  0.1595E+02
     -5.192  0.5964E+00  0.5964E+00  0.1598E+02  0.1598E+02
     -5.153  0.3203E+00  0.3204E+00  0.1599E+02  0.1599E+02
     -5.114  0.1595E+00  0.1595E+00  0.1600E+02  0.1600E+02
     -5.075  0.7362E-01  0.7362E-01  0.1600E+02  0.1600E+02
     -5.036  0.3150E-01  0.3150E-01  0.1600E+02  0.1600E+02
     -4.997  0.1249E-01  0.1249E-01  0.1600E+02  0.1600E+02
     -4.958  0.4591E-02  0.4591E-02  0.1600E+02  0.1600E+02
     -4.919  0.1564E-02  0.1564E-02  0.1600E+02  0.1600E+02
     -4.880  0.4940E-03  0.4941E-03  0.1600E+02  0.1600E+02
     -4.841  0.1446E-03  0.1446E-03  0.1600E+02  0.1600E+02
     -4.802  0.3924E-04  0.3924E-04  0.1600E+02  0.1600E+02
     -4.762  0.9869E-05  0.9870E-05  0.1600E+02  0.1600E+02
     -4.723  0.2301E-05  0.2301E-05  0.1600E+02  0.1600E+02
     -4.684  0.4972E-06  0.4972E-06  0.1600E+02  0.1600E+02
     -4.645  0.9957E-07  0.9959E-07  0.1600E+02  0.1600E+02
     -4.606  0.1849E-07  0.1849E-07  0.1600E+02  0.1600E+02
     -4.567  0.3181E-08  0.3181E-08  0.1600E+02  0.1600E+02
     -4.528  0.5073E-09  0.5074E-09  0.1600E+02  0.1600E+02
     -4.489  0.7499E-10  0.7501E-10  0.1600E+02  0.1600E+02
     -4.450  0.1027E-10  0.1027E-10  0.1600E+02  0.1600E+02
     -4.411  0.1307E-11  0.1307E-11  0.1600E+02  0.1600E+02
     -4.372  0.1477E-12  0.1477E-12  0.1600E+02  0.1600E+02
     -4.333  0.2273E-13  0.2273E-13  0.1600E+02  0.1600E+02
     -4.294  0.0000E+00  0.0000E+00  0.1600E+02  0.1600E+02
     -4.255  0.0000E+00  0.0000E+00  0.1600E+02  0.1600E+02
     -4.215  0.0000E+00  0.0000E+00  0.1600E+02  0.1600E+02
     -4.176  0.0000E+00  0.0000E+00  0.1600E+02  0.1600E+02
     -4.137  0.0000E+00  0.0000E+00  0.1600E+02  0.1600E+02
     -4.098  0.0000E+00  0.0000E+00  0.1600E+02  0.1600E+02
     -4.059  0.0000E+00  0.0000E+00  0.1600E+02  0.1600E+02
     -4.020  0.0000E+00  0.0000E+00  0.1600E+02  0.1600E+02
     -3.981  0.0000E+00  0.0000E+00  0.1600E+02  0.1600E+02
     -3.942  0.0000E+00  0.0000E+00  0.1600E+02  0.1600E+02
     -3.903  0.0000E+00  0.0000E+00  0.1600E+02  0.1600E+02
     -3.864  0.0000E+00  0.0000E+00  0.1600E+02  0.1600E+02
     -3.825  0.0000E+00  0.0000E+00  0.1600E+02  0.1600E+02
     -3.786  0.0000E+00  0.0000E+00  0.1600E+02  0.1600E+02
     -3.747  0.0000E+00  0.0000E+00  0.1600E+02  0.1600E+02
     -3.707  0.0000E+00  0.0000E+00  0.1600E+02  0.1600E+02
     -3.668  0.0000E+00  0.0000E+00  0.1600E+02  0.1600E+02
     -3.629  0.0000E+00  0.0000E+00  0.1600E+02  0.1600E+02
     -3.590  0.0000E+00  0.0000E+00  0.1600E+02  0.1600E+02
     -3.551  0.0000E+00  0.0000E+00  0.1600E+02  0.1600E+02
     -3.512  0.0000E+00  0.0000E+00  0.1600E+02  0.1600E+02
     -3.473  0.0000E+00  0.0000E+00  0.1600E+02  0.1600E+02
     -3.434  0.0000E+00  0.0000E+00  0.1600E+02  0.1600E+02
     -3.395  0.0000E+00  0.0000E+00  0.1600E+02  0.1600E+02
     -3.356  0.0000E+00  0.0000E+00  0.1600E+02  0.1600E+02
     -3.317  0.0000E+00  0.0000E+00  0.1600E+02  0.1600E+02
     -3.278  0.0000E+00  0.0000E+00  0.1600E+02  0.1600E+02
     -3.239  0.0000E+00  0.0000E+00  0.1600E+02  0.1600E+02
     -3.199  0.0000E+00  0.0000E+00  0.1600E+02  0.1600E+02
     -3.160  0.0000E+00  0.0000E+00  0.1600E+02  0.1600E+02
     -3.121  0.0000E+00  0.0000E+00  0.1600E+02  0.1600E+02
     -3.082  0.0000E+00  0.0000E+00  0.1600E+02  0.1600E+02
     -3.043  0.0000E+00  0.0000E+00  0.1600E+02  0.1600E+02
     -3.004  0.0000E+00  0.0000E+00  0.1600E+02  0.1600E+02
     -2.965  0.0000E+00  0.0000E+00  0.1600E+02  0.1600E+02
     -2.926  0.0000E+00  0.0000E+00  0.1600E+02  0.1600E+02
     -2.887  0.0000E+00  0.0000E+00  0.1600E+02  0.1600E+02
     -2.848  0.0000E+00  0.0000E+00  0.1600E+02  0.1600E+02
     -2.809  0.0000E+00  0.0000E+00  0.1600E+02  0.1600E+02
     -2.770  0.0000E+00  0.0000E+00  0.1600E+02  0.1600E+02
     -2.731  0.0000E+00  0.0000E+00  0.1600E+02  0.1600E+02
     -2.691  0.0000E+00  0.0000E+00  0.1600E+02  0.1600E+02
     -2.652  0.0000E+00  0.0000E+00  0.1600E+02  0.1600E+02
     -2.613  0.0000E+00  0.0000E+00  0.1600E+02  0.1600E+02
     -2.574  0.0000E+00  0.0000E+00  0.1600E+02  0.1600E+02
     -2.535  0.0000E+00  0.0000E+00  0.1600E+02  0.1600E+02
     -2.496  0.0000E+00  0.0000E+00  0.1600E+02  0.1600E+02
     -2.457  0.0000E+00  0.0000E+00  0.1600E+02  0.1600E+02
     -2.418  0.0000E+00  0.0000E+00  0.1600E+02  0.1600E+02
     -2.379  0.0000E+00  0.0000E+00  0.1600E+02  0.1600E+02
     -2.340  0.0000E+00  0.0000E+00  0.1600E+02  0.1600E+02
     -2.301  0.0000E+00  0.0000E+00  0.1600E+02  0.1600E+02
     -2.262  0.0000E+00  0.0000E+00  0.1600E+02  0.1600E+02
     -2.223  0.0000E+00  0.0000E+00  0.1600E+02  0.1600E+02
     -2.184  0.0000E+00  0.0000E+00  0.1600E+02  0.1600E+02
     -2.144  0.0000E+00  0.0000E+00  0.1600E+02  0.1600E+02
     -2.105  0.0000E+00  0.0000E+00  0.1600E+02  0.1600E+02
     -2.066  0.0000E+00  0.0000E+00  0.1600E+02  0.1600E+02
     -2.027  0.0000E+00  0.0000E+00  0.1600E+02  0.1600E+02
     -1.988  0.0000E+00  0.0000E+00  0.1600E+02  0.1600E+02
     -1.949  0.0000E+00  0.0000E+00  0.1600E+02  0.1600E+02
     -1.910  0.0000E+00  0.0000E+00  0.1600E+02  0.1600E+02
     -1.871  0.0000E+00  0.0000E+00  0.1600E+02  0.1600E+02
     -1.832  0.0000E+00  0.0000E+00  0.1600E+02  0.1600E+02
     -1.793  0.0000E+00  0.0000E+00  0.1600E+02  0.1600E+02
     -1.754  0.0000E+00  0.0000E+00  0.1600E+02  0.1600E+02
     -1.715  0.0000E+00  0.0000E+00  0.1600E+02  0.1600E+02
     -1.676  0.0000E+00  0.0000E+00  0.1600E+02  0.1600E+02
     -1.636  0.0000E+00  0.0000E+00  0.1600E+02  0.1600E+02
     -1.597  0.0000E+00  0.0000E+00  0.1600E+02  0.1600E+02
     -1.558  0.0000E+00  0.0000E+00  0.1600E+02  0.1600E+02
     -1.519  0.0000E+00  0.0000E+00  0.1600E+02  0.1600E+02
     -1.480  0.0000E+00  0.0000E+00  0.1600E+02  0.1600E+02
     -1.441  0.0000E+00  0.0000E+00  0.1600E+02  0.1600E+02
     -1.402  0.0000E+00  0.0000E+00  0.1600E+02  0.1600E+02
     -1.363  0.0000E+00  0.0000E+00  0.1600E+02  0.1600E+02
     -1.324  0.0000E+00  0.0000E+00  0.1600E+02  0.1600E+02
     -1.285  0.5682E-14  0.5682E-14  0.1600E+02  0.1600E+02
     -1.246  0.4262E-13  0.4262E-13  0.1600E+02  0.1600E+02
     -1.207  0.3949E-12  0.4035E-12  0.1600E+02  0.1600E+02
     -1.168  0.3284E-11  0.3287E-11  0.1600E+02  0.1600E+02
     -1.128  0.2515E-10  0.2522E-10  0.1600E+02  0.1600E+02
     -1.089  0.1789E-09  0.1794E-09  0.1600E+02  0.1600E+02
     -1.050  0.1180E-08  0.1184E-08  0.1600E+02  0.1600E+02
     -1.011  0.7224E-08  0.7245E-08  0.1600E+02  0.1600E+02
     -0.972  0.4104E-07  0.4115E-07  0.1600E+02  0.1600E+02
     -0.933  0.2164E-06  0.2170E-06  0.1600E+02  0.1600E+02
     -0.894  0.1059E-05  0.1062E-05  0.1600E+02  0.1600E+02
     -0.855  0.4811E-05  0.4824E-05  0.1600E+02  0.1600E+02
     -0.816  0.2030E-04  0.2036E-04  0.1600E+02  0.1600E+02
     -0.777  0.7956E-04  0.7978E-04  0.1600E+02  0.1600E+02
     -0.738  0.2897E-03  0.2905E-03  0.1600E+02  0.1600E+02
     -0.699  0.9801E-03  0.9828E-03  0.1600E+02  0.1600E+02
     -0.660  0.3083E-02  0.3091E-02  0.1600E+02  0.1600E+02
     -0.621  0.9014E-02  0.9038E-02  0.1600E+02  0.1600E+02
     -0.581  0.2451E-01  0.2458E-01  0.1600E+02  0.1600E+02
     -0.542  0.6201E-01  0.6217E-01  0.1600E+02  0.1600E+02
     -0.503  0.1460E+00  0.1463E+00  0.1601E+02  0.1601E+02
     -0.464  0.3198E+00  0.3206E+00  0.1602E+02  0.1602E+02
     -0.425  0.6524E+00  0.6540E+00  0.1605E+02  0.1605E+02
     -0.386  0.1239E+01  0.1242E+01  0.1610E+02  0.1610E+02
     -0.347  0.2193E+01  0.2198E+01  0.1618E+02  0.1618E+02
     -0.308  0.3615E+01  0.3623E+01  0.1632E+02  0.1632E+02
     -0.269  0.5555E+01  0.5565E+01  0.1654E+02  0.1654E+02
     -0.230  0.7958E+01  0.7971E+01  0.1685E+02  0.1685E+02
     -0.191  0.1064E+02  0.1065E+02  0.1727E+02  0.1727E+02
     -0.152  0.1328E+02  0.1329E+02  0.1779E+02  0.1779E+02
     -0.113  0.1550E+02  0.1551E+02  0.1839E+02  0.1839E+02
     -0.073  0.1698E+02  0.1698E+02  0.1905E+02  0.1906E+02
     -0.034  0.1750E+02  0.1750E+02  0.1974E+02  0.1974E+02
      0.005  0.1708E+02  0.1708E+02  0.2041E+02  0.2041E+02
      0.044  0.1592E+02  0.1591E+02  0.2103E+02  0.2103E+02
      0.083  0.1432E+02  0.1431E+02  0.2159E+02  0.2159E+02
      0.122  0.1256E+02  0.1254E+02  0.2208E+02  0.2208E+02
      0.161  0.1083E+02  0.1082E+02  0.2250E+02  0.2250E+02
      0.200  0.9214E+01  0.9204E+01  0.2286E+02  0.2286E+02
      0.239  0.7704E+01  0.7696E+01  0.2316E+02  0.2316E+02
      0.278  0.6272E+01  0.6267E+01  0.2341E+02  0.2341E+02
      0.317  0.4916E+01  0.4912E+01  0.2360E+02  0.2360E+02
      0.356  0.3669E+01  0.3666E+01  0.2374E+02  0.2374E+02
      0.395  0.2586E+01  0.2584E+01  0.2384E+02  0.2384E+02
      0.435  0.1710E+01  0.1708E+01  0.2391E+02  0.2391E+02
      0.474  0.1056E+01  0.1055E+01  0.2395E+02  0.2395E+02
      0.513  0.6073E+00  0.6067E+00  0.2398E+02  0.2398E+02
      0.552  0.3248E+00  0.3245E+00  0.2399E+02  0.2399E+02
      0.591  0.1613E+00  0.1611E+00  0.2400E+02  0.2400E+02
      0.630  0.7436E-01  0.7427E-01  0.2400E+02  0.2400E+02
      0.669  0.3179E-01  0.3175E-01  0.2400E+02  0.2400E+02
      0.708  0.1261E-01  0.1259E-01  0.2400E+02  0.2400E+02
      0.747  0.4635E-02  0.4628E-02  0.2400E+02  0.2400E+02
      0.786  0.1580E-02  0.1577E-02  0.2400E+02  0.2400E+02
      0.825  0.4991E-03  0.4983E-03  0.2400E+02  0.2400E+02
      0.864  0.1462E-03  0.1459E-03  0.2400E+02  0.2400E+02
      0.903  0.3969E-04  0.3961E-04  0.2400E+02  0.2400E+02
      0.943  0.9988E-05  0.9967E-05  0.2400E+02  0.2400E+02
      0.982  0.2330E-05  0.2325E-05  0.2400E+02  0.2400E+02
      1.021  0.5038E-06  0.5026E-06  0.2400E+02  0.2400E+02
      1.060  0.1010E-06  0.1007E-06  0.2400E+02  0.2400E+02
      1.099  0.1875E-07  0.1871E-07  0.2400E+02  0.2400E+02
      1.138  0.3229E-08  0.3221E-08  0.2400E+02  0.2400E+02
      1.177  0.5153E-09  0.5139E-09  0.2400E+02  0.2400E+02
      1.216  0.7623E-10  0.7601E-10  0.2400E+02  0.2400E+02
      1.255  0.1046E-10  0.1042E-10  0.2400E+02  0.2400E+02
      1.294  0.1324E-11  0.1324E-11  0.2400E+02  0.2400E+02
      1.333  0.1534E-12  0.1534E-12  0.2400E+02  0.2400E+02
      1.372  0.2273E-13  0.2273E-13  0.2400E+02  0.2400E+02
      1.411  0.0000E+00  0.0000E+00  0.2400E+02  0.2400E+02
      1.450  0.0000E+00  0.0000E+00  0.2400E+02  0.2400E+02
      1.490  0.0000E+00  0.0000E+00  0.2400E+02  0.2400E+02
      1.529  0.0000E+00  0.0000E+00  0.2400E+02  0.2400E+02
      1.568  0.0000E+00  0.0000E+00  0.2400E+02  0.2400E+02
      1.607  0.0000E+00  0.0000E+00  0.2400E+02  0.2400E+02
      1.646  0.0000E+00  0.0000E+00  0.2400E+02  0.2400E+02
      1.685  0.0000E+00  0.0000E+00  0.2400E+02  0.2400E+02
      1.724  0.0000E+00  0.0000E+00  0.2400E+02  0.2400E+02
      1.763  0.0000E+00  0.0000E+00  0.2400E+02  0.2400E+02
      1.802  0.0000E+00  0.0000E+00  0.2400E+02  0.2400E+02
      1.841  0.0000E+00  0.0000E+00  0.2400E+02  0.2400E+02
      1.880  0.0000E+00  0.0000E+00  0.2400E+02  0.2400E+02
      1.919  0.0000E+00  0.0000E+00  0.2400E+02  0.2400E+02
      1.958  0.0000E+00  0.0000E+00  0.2400E+02  0.2400E+02
      1.998  0.0000E+00  0.0000E+00  0.2400E+02  0.2400E+02
      2.037  0.0000E+00  0.0000E+00  0.2400E+02  0.2400E+02
      2.076  0.0000E+00  0.0000E+00  0.2400E+02  0.2400E+02
      2.115  0.0000E+00  0.0000E+00  0.2400E+02  0.2400E+02
      2.154  0.0000E+00  0.0000E+00  0.2400E+02  0.2400E+02
      2.193  0.0000E+00  0.0000E+00  0.2400E+02  0.2400E+02
