    8    8    1    2
  0.6075000E+03  0.1500000E-08  0.1500000E-08  0.2160000E-08  0.5000000E-15
  1.000000000000000E-004
  CAR 
 unknown system                          
      8      1     12
 
  0.0000000E+00  0.0000000E+00  0.0000000E+00  0.1000000E+01
    1       -7.529677     -7.529675   1.000000   1.000000
    2       -7.306431     -7.306430   0.999993   0.999993
    3       -7.306431     -7.306430   0.999993   0.999993
    4       -6.692331     -6.692329   0.500007   0.500007
    5       -6.692331     -6.692329   0.500007   0.500007
    6       -5.915783     -5.915780   0.000000   0.000000
    7       -5.915783     -5.915780   0.000000   0.000000
    8       -5.512406     -5.512403   0.000000   0.000000
    9       -0.121611     -0.121657   0.000000   0.000000
   10       -0.049262     -0.049539   0.000000   0.000000
   11       -0.049262     -0.049539   0.000000   0.000000
   12        0.192919      0.192862   0.000000   0.000000
