       N       E                     dE             d eps       ncg     rms          rms(c)
DAV:   1     0.168582347818E+02    0.16858E+02   -0.70873E+02    48   0.159E+02
DAV:   2    -0.265425798866E+01   -0.19512E+02   -0.19457E+02    96   0.468E+01
DAV:   3    -0.447700731337E+01   -0.18227E+01   -0.16858E+01    64   0.175E+01
DAV:   4    -0.461208893786E+01   -0.13508E+00   -0.11554E+00    64   0.374E+00
DAV:   5    -0.461411204351E+01   -0.20231E-02   -0.20192E-02    56   0.430E-01    0.128E+00
DAV:   6    -0.461805530294E+01   -0.39433E-02   -0.12291E-02    48   0.482E-01    0.739E-01
DAV:   7    -0.464013917395E+01   -0.22084E-01   -0.24857E-02    48   0.717E-01    0.695E-02
DAV:   8    -0.464176209206E+01   -0.16229E-02   -0.14903E-03    56   0.183E-01    0.321E-02
DAV:   9    -0.464198104752E+01   -0.21896E-03   -0.29551E-05    56   0.290E-02    0.347E-03
DAV:  10    -0.464201857409E+01   -0.37527E-04   -0.19341E-06    48   0.599E-03    0.228E-03
DAV:  11    -0.464208738289E+01   -0.68809E-04   -0.75205E-06    56   0.982E-03    0.147E-03
DAV:  12    -0.464210667111E+01   -0.19288E-04   -0.13967E-06    48   0.422E-03    0.965E-04
DAV:  13    -0.464212319136E+01   -0.16520E-04   -0.25509E-06    48   0.482E-03    0.666E-04
DAV:  14    -0.464212582600E+01   -0.26346E-05   -0.11876E-07    36   0.161E-03    0.289E-04
DAV:  15    -0.464213090952E+01   -0.50835E-05   -0.99382E-08    32   0.109E-03    0.171E-04
DAV:  16    -0.464213585614E+01   -0.49466E-05   -0.21102E-07    32   0.150E-03    0.878E-05
DAV:  17    -0.464213656382E+01   -0.70769E-06   -0.25135E-08    32   0.577E-04
   1 F= -.46421366E+01 E0= -.45292895E+01  d E =-.225694E+00  mag=     0.0000
