<?xml version="1.0" encoding="ISO-8859-1"?>
<modeling>
 <generator>
  <i name="program" type="string">vasp </i>
  <i name="version" type="string">5.4.4.18Apr17-6-g9f103f2a35  </i>
  <i name="subversion" type="string">(build Aug 24 2024 05:40:03) complex            parallel </i>
  <i name="platform" type="string">IFC22_IMPI </i>
  <i name="date" type="string">2024 11 22 </i>
  <i name="time" type="string">21:47:56 </i>
 </generator>
 <incar>
  <i type="string" name="PREC">normal</i>
  <i type="int" name="ISPIN">     2</i>
  <i type="int" name="ICHARG">     2</i>
  <i type="int" name="NELM">   100</i>
  <i name="EDIFF">      0.00000100</i>
  <i type="int" name="NSW">     0</i>
  <i name="ENCUT">    300.00000000</i>
  <i name="NUPDOWN">      0.00000000</i>
  <i type="int" name="ISMEAR">     0</i>
  <i name="SIGMA">      0.20000000</i>
  <i type="logical" name="LWAVE"> F  </i>
  <i type="logical" name="LCHARG"> F  </i>
  <v type="int" name="KPOINT_BSE">    -1     0     0     0</v>
  <i type="int" name="NELM">   100</i>
 </incar>
 <structure name="primitive_cell" >
  <crystal>
   <varray name="basis" >
    <v>      15.00000000       0.00000000       0.00000000 </v>
    <v>       0.00000000      15.00000000       0.00000000 </v>
    <v>       0.00000000       0.00000000       2.70000000 </v>
   </varray>
   <i name="volume">    607.50000000 </i>
   <varray name="rec_basis" >
    <v>       0.06666667      -0.00000000       0.00000000 </v>
    <v>       0.00000000       0.06666667       0.00000000 </v>
    <v>      -0.00000000      -0.00000000       0.37037037 </v>
   </varray>
  </crystal>
  <varray name="positions" >
   <v>       0.00000000       0.00000000       0.00000000 </v>
  </varray>
 </structure>
 <varray name="primitive_index" >
  <v type="int" >        1 </v>
 </varray>
 <kpoints>
  <generation param="Gamma">
   <v type="int" name="divisions">       1        1        1 </v>
   <v name="usershift">      0.00000000       0.00000000       0.00000000 </v>
   <v name="genvec1">      1.00000000      -0.00000000       0.00000000 </v>
   <v name="genvec2">      0.00000000       1.00000000       0.00000000 </v>
   <v name="genvec3">      0.00000000      -0.00000000       1.00000000 </v>
   <v name="shift">      0.00000000       0.00000000       0.00000000 </v>
  </generation>
  <varray name="kpointlist" >
   <v>       0.00000000       0.00000000       0.00000000 </v>
  </varray>
  <varray name="weights" >
   <v>       1.00000000 </v>
  </varray>
 </kpoints>
 <parameters>
  <separator name="general" >
   <i type="string" name="SYSTEM">unknown system</i>
   <i type="logical" name="LCOMPAT"> F  </i>
  </separator>
  <separator name="electronic" >
   <i type="string" name="PREC">normal</i>
   <i name="ENMAX">    300.00000000</i>
   <i name="ENAUG">    400.00000000</i>
   <i name="EDIFF">      0.00000100</i>
   <i type="int" name="IALGO">    38</i>
   <i type="int" name="IWAVPR">    10</i>
   <i type="int" name="NBANDS">    12</i>
   <i name="NELECT">      8.00000000</i>
   <i type="int" name="TURBO">     0</i>
   <i type="int" name="IRESTART">     0</i>
   <i type="int" name="NREBOOT">     0</i>
   <i type="int" name="NMIN">     0</i>
   <i name="EREF">      0.00000000</i>
   <separator name="electronic smearing" >
    <i type="int" name="ISMEAR">     0</i>
    <i name="SIGMA">      0.20000000</i>
    <i name="KSPACING">      0.50000000</i>
    <i type="logical" name="KGAMMA"> T  </i>
   </separator>
   <separator name="electronic projectors" >
    <i type="logical" name="LREAL"> F  </i>
    <v name="ROPT">      0.00000000</v>
    <i type="int" name="LMAXPAW">  -100</i>
    <i type="int" name="LMAXMIX">     2</i>
    <i type="logical" name="NLSPLINE"> F  </i>
   </separator>
   <separator name="electronic startup" >
    <i type="int" name="ISTART">     0</i>
    <i type="int" name="ICHARG">     2</i>
    <i type="int" name="INIWAV">     1</i>
   </separator>
   <separator name="electronic spin" >
    <i type="int" name="ISPIN">     2</i>
    <i type="logical" name="LNONCOLLINEAR"> F  </i>
    <v name="MAGMOM">      0.00000000      0.00000000      0.00000000      0.00000000      0.00000000      0.00000000      0.00000000      0.00000000</v>
    <i name="NUPDOWN">      0.00000000</i>
    <i type="logical" name="LSORBIT"> F  </i>
    <v name="SAXIS">      0.00000000      0.00000000      1.00000000</v>
    <i type="logical" name="LSPIRAL"> F  </i>
    <v name="QSPIRAL">      0.00000000      0.00000000      0.00000000</v>
    <i type="logical" name="LZEROZ"> F  </i>
   </separator>
   <separator name="electronic exchange-correlation" >
    <i type="logical" name="LASPH"> F  </i>
    <i type="logical" name="LMETAGGA"> F  </i>
   </separator>
   <separator name="electronic convergence" >
    <i type="int" name="NELM">   100</i>
    <i type="int" name="NELMDL">    -5</i>
    <i type="int" name="NELMIN">     2</i>
    <i name="ENINI">    300.00000000</i>
    <separator name="electronic convergence detail" >
     <i type="logical" name="LDIAG"> T  </i>
     <i type="logical" name="LSUBROT"> F  </i>
     <i name="WEIMIN">      0.00000000</i>
     <i name="EBREAK">      0.00000002</i>
     <i name="DEPER">      0.30000000</i>
     <i type="int" name="NRMM">     4</i>
     <i name="TIME">      0.40000000</i>
    </separator>
   </separator>
   <separator name="electronic mixer" >
    <i name="AMIX">      0.40000000</i>
    <i name="BMIX">      1.00000000</i>
    <i name="AMIN">      0.10000000</i>
    <i name="AMIX_MAG">      1.60000000</i>
    <i name="BMIX_MAG">      1.00000000</i>
    <separator name="electronic mixer details" >
     <i type="int" name="IMIX">     4</i>
     <i type="logical" name="MIXFIRST"> F  </i>
     <i type="int" name="MAXMIX">   -45</i>
     <i name="WC">    100.00000000</i>
     <i type="int" name="INIMIX">     1</i>
     <i type="int" name="MIXPRE">     1</i>
     <i type="int" name="MREMOVE">     5</i>
    </separator>
   </separator>
   <separator name="electronic dipolcorrection" >
    <i type="logical" name="LDIPOL"> F  </i>
    <i type="logical" name="LMONO"> F  </i>
    <i type="int" name="IDIPOL">     0</i>
    <i name="EPSILON">      1.00000000</i>
    <v name="DIPOL">   -100.00000000   -100.00000000   -100.00000000</v>
    <i name="EFIELD">      0.00000000</i>
   </separator>
  </separator>
  <separator name="grids" >
   <i type="int" name="NGX">    64</i>
   <i type="int" name="NGY">    64</i>
   <i type="int" name="NGZ">    96</i>
   <i type="int" name="NGXF">   128</i>
   <i type="int" name="NGYF">   128</i>
   <i type="int" name="NGZF">   192</i>
   <i type="logical" name="ADDGRID"> F  </i>
  </separator>
  <separator name="ionic" >
   <i type="int" name="NSW">     0</i>
   <i type="int" name="IBRION">    -1</i>
   <i type="int" name="MDALGO">     0</i>
   <i type="int" name="ISIF">     2</i>
   <i name="PSTRESS">      0.00000000</i>
   <i name="EDIFFG">      0.00001000</i>
   <i type="int" name="NFREE">     0</i>
   <i name="POTIM">      0.50000000</i>
   <i name="SMASS">     -3.00000000</i>
   <i name="SCALEE">      1.00000000</i>
  </separator>
  <separator name="ionic md" >
   <i name="TEBEG">      0.00010000</i>
   <i name="TEEND">      0.00010000</i>
   <i type="int" name="NBLOCK">     1</i>
   <i type="int" name="KBLOCK">     1</i>
   <i type="int" name="NPACO">   256</i>
   <i name="APACO">     16.00000000</i>
  </separator>
  <separator name="symmetry" >
   <i type="int" name="ISYM">     2</i>
   <i name="SYMPREC">      0.00001000</i>
  </separator>
  <separator name="dos" >
   <i type="int" name="LORBIT">     0</i>
   <v name="RWIGS">     -1.00000000</v>
   <i type="int" name="NEDOS">   301</i>
   <i name="EMIN">     10.00000000</i>
   <i name="EMAX">    -10.00000000</i>
   <i name="EFERMI">      0.00000000</i>
  </separator>
  <separator name="writing" >
   <i type="int" name="NWRITE">     2</i>
   <i type="logical" name="LWAVE"> F  </i>
   <i type="logical" name="LDOWNSAMPLE"> F  </i>
   <i type="logical" name="LCHARG"> F  </i>
   <i type="logical" name="LPARD"> F  </i>
   <i type="logical" name="LVTOT"> F  </i>
   <i type="logical" name="LVHAR"> F  </i>
   <i type="logical" name="LELF"> F  </i>
   <i type="logical" name="LOPTICS"> F  </i>
   <v name="STM">      0.00000000      0.00000000      0.00000000      0.00000000      0.00000000      0.00000000      0.00000000</v>
  </separator>
  <separator name="performance" >
   <i type="int" name="NPAR">     4</i>
   <i type="int" name="NSIM">     4</i>
   <i type="int" name="NBLK">    -1</i>
   <i type="logical" name="LPLANE"> T  </i>
   <i type="logical" name="LSCALAPACK"> T  </i>
   <i type="logical" name="LSCAAWARE"> F  </i>
   <i type="logical" name="LSCALU"> F  </i>
   <i type="logical" name="LASYNC"> F  </i>
   <i type="logical" name="LORBITALREAL"> F  </i>
  </separator>
  <separator name="miscellaneous" >
   <i type="int" name="IDIOT">     3</i>
   <i type="int" name="ISPECIAL">     0</i>
   <i type="logical" name="LMUSIC"> F  </i>
   <v name="POMASS">      1.00000000</v>
   <v name="DARWINR">      0.00000000</v>
   <v name="DARWINV">      1.00000000</v>
   <i type="logical" name="LCORR"> T  </i>
  </separator>
  <i type="logical" name="GGA_COMPAT"> T  </i>
  <i type="logical" name="LBERRY"> F  </i>
  <i type="int" name="ICORELEVEL">     0</i>
  <i type="logical" name="LDAU"> F  </i>
  <i type="int" name="I_CONSTRAINED_M">     0</i>
  <separator name="electronic exchange-correlation" >
   <i type="string" name="GGA">--</i>
   <i type="int" name="VOSKOWN">     0</i>
   <i type="logical" name="LHFCALC"> F  </i>
   <i type="string" name="PRECFOCK"></i>
   <i type="logical" name="LSYMGRAD"> F  </i>
   <i type="logical" name="LHFONE"> F  </i>
   <i type="logical" name="LRHFCALC"> F  </i>
   <i type="logical" name="LTHOMAS"> F  </i>
   <i type="logical" name="LMODELHF"> F  </i>
   <i name="ENCUT4O">     -1.00000000</i>
   <i type="int" name="EXXOEP">     0</i>
   <i type="int" name="FOURORBIT">     0</i>
   <i name="AEXX">      0.00000000</i>
   <i name="HFALPHA">      0.00000000</i>
   <i name="MCALPHA">      0.00000000</i>
   <i name="ALDAX">      1.00000000</i>
   <i name="AGGAX">      1.00000000</i>
   <i name="ALDAC">      1.00000000</i>
   <i name="AGGAC">      1.00000000</i>
   <i type="int" name="NKREDX">     1</i>
   <i type="int" name="NKREDY">     1</i>
   <i type="int" name="NKREDZ">     1</i>
   <i type="logical" name="SHIFTRED"> F  </i>
   <i type="logical" name="ODDONLY"> F  </i>
   <i type="logical" name="EVENONLY"> F  </i>
   <i type="int" name="LMAXFOCK">     0</i>
   <i type="int" name="NMAXFOCKAE">     0</i>
   <i type="logical" name="LFOCKAEDFT"> F  </i>
   <i name="HFSCREEN">      0.00000000</i>
   <i name="HFSCREENC">      0.00000000</i>
   <i type="int" name="NBANDSGWLOW">     0</i>
  </separator>
  <separator name="vdW DFT" >
   <i type="logical" name="LUSE_VDW"> F  </i>
   <i name="Zab_VDW">     -0.84910000</i>
   <i name="PARAM1">      0.12340000</i>
   <i name="PARAM2">      1.00000000</i>
   <i name="PARAM3">      0.00000000</i>
  </separator>
  <separator name="model GW" >
   <i type="int" name="MODEL_GW">     0</i>
   <i name="MODEL_EPS0">    364.50000000</i>
   <i name="MODEL_ALPHA">      1.00000000</i>
  </separator>
  <separator name="linear response parameters" >
   <i type="logical" name="LEPSILON"> F  </i>
   <i type="logical" name="LRPA"> F  </i>
   <i type="logical" name="LNABLA"> F  </i>
   <i type="logical" name="LVEL"> F  </i>
   <i type="int" name="KINTER">     0</i>
   <i name="CSHIFT">      0.10000000</i>
   <i name="OMEGAMAX">     -1.00000000</i>
   <i name="DEG_THRESHOLD">      0.00200000</i>
   <i name="RTIME">     -0.10000000</i>
   <i name="WPLASMAI">      0.00000000</i>
   <v name="DFIELD">      0.00000000      0.00000000      0.00000000</v>
   <v name="WPLASMA">      0.00000000      0.00000000      0.00000000      0.00000000      0.00000000      0.00000000      0.00000000      0.00000000      0.00000000</v>
  </separator>
  <separator name="orbital magnetization" >
   <i type="logical" name="NUCIND"> F  </i>
   <v name="MAGPOS">      0.00000000      0.00000000      0.00000000</v>
   <i type="logical" name="LNICSALL"> T  </i>
   <i type="logical" name="ORBITALMAG"> F  </i>
   <i type="logical" name="LMAGBLOCH"> F  </i>
   <i type="logical" name="LCHIMAG"> F  </i>
   <i type="logical" name="LGAUGE"> T  </i>
   <i type="int" name="MAGATOM">     0</i>
   <v name="MAGDIPOL">      0.00000000      0.00000000      0.00000000</v>
   <v name="AVECCONST">      0.00000000      0.00000000      0.00000000</v>
  </separator>
  <separator name="response functions" >
   <i type="logical" name="LADDER"> F  </i>
   <i type="logical" name="LRPAFORCE"> F  </i>
   <i type="logical" name="LFXC"> F  </i>
   <i type="logical" name="LHARTREE"> T  </i>
   <i type="int" name="IBSE">     0</i>
   <v type="int" name="KPOINT">    -1     0     0     0</v>
   <i type="logical" name="LTCTE"> F  </i>
   <i type="logical" name="LTETE"> F  </i>
   <i type="logical" name="LTRIPLET"> F  </i>
   <i type="logical" name="LFXCEPS"> F  </i>
   <i type="logical" name="LFXHEG"> F  </i>
   <i type="int" name="NATURALO">     2</i>
   <i type="logical" name="L2ORDER"> F  </i>
   <i type="logical" name="LMP2LT"> F  </i>
   <i type="logical" name="LUSEW"> F  </i>
   <i name="ENCUTGW">     -2.00000000</i>
   <i name="ENCUTGWSOFT">     -2.00000000</i>
   <i name="ENCUTLF">     -1.00000000</i>
   <i type="int" name="LMAXMP2">    -1</i>
   <i name="SCISSOR">      0.00000000</i>
   <i type="int" name="NOMEGA">     0</i>
   <i type="int" name="NOMEGAR">     0</i>
   <i type="int" name="NBANDSGW">    -1</i>
   <i type="int" name="NBANDSO">    -1</i>
   <i type="int" name="NBANDSV">    -1</i>
   <i type="int" name="NELM">   100</i>
   <i type="int" name="NELMHF">     1</i>
   <i type="int" name="DIM">     3</i>
   <i type="int" name="ANTIRES">     0</i>
   <i name="OMEGAMAX">    -30.00000000</i>
   <i name="OMEGAMIN">    -30.00000000</i>
   <i name="OMEGATL">   -200.00000000</i>
   <i type="int" name="OMEGAGRID">   140</i>
   <i name="CSHIFT">     -0.10000000</i>
   <i type="logical" name="SELFENERGY"> F  </i>
   <i type="logical" name="LSPECTRAL"> F  </i>
   <i type="logical" name="LSPECTRALGW"> F  </i>
   <i type="logical" name="LSINGLES"> F  </i>
   <i type="logical" name="LFERMIGW"> F  </i>
   <i type="logical" name="ODDONLYGW"> F  </i>
   <i type="logical" name="EVENONLYGW"> F  </i>
   <i type="int" name="NKREDLFX">     1</i>
   <i type="int" name="NKREDLFY">     1</i>
   <i type="int" name="NKREDLFZ">     1</i>
   <i type="int" name="MAXMEM">  2800</i>
   <i type="int" name="TELESCOPE">     0</i>
   <i type="int" name="TAUPAR">     1</i>
   <i type="int" name="OMEGAPAR">    -1</i>
   <i name="LAMBDA">      1.00000000</i>
  </separator>
  <separator name="External order field" >
   <i name="OFIELD_KAPPA">      0.00000000</i>
   <v name="OFIELD_K">      0.00000000      0.00000000      0.00000000</v>
   <i name="OFIELD_Q6_NEAR">      0.00000000</i>
   <i name="OFIELD_Q6_FAR">      0.00000000</i>
   <i name="OFIELD_A">      0.00000000</i>
  </separator>
 </parameters>
 <atominfo>
  <atoms>       8 </atoms>
  <types>       1 </types>
  <array name="atoms" >
   <dimension dim="1">ion</dimension>
   <field type="string">element</field>
   <field type="int">atomtype</field>
   <set>
    <rc><c>H </c><c>   1</c></rc>
    <rc><c>H </c><c>   1</c></rc>
    <rc><c>H </c><c>   1</c></rc>
    <rc><c>H </c><c>   1</c></rc>
    <rc><c>H </c><c>   1</c></rc>
    <rc><c>H </c><c>   1</c></rc>
    <rc><c>H </c><c>   1</c></rc>
    <rc><c>H </c><c>   1</c></rc>
   </set>
  </array>
  <array name="atomtypes" >
   <dimension dim="1">type</dimension>
   <field type="int">atomspertype</field>
   <field type="string">element</field>
   <field>mass</field>
   <field>valence</field>
   <field type="string">pseudopotential</field>
   <set>
    <rc><c>   8</c><c>H </c><c>      1.00000000</c><c>      1.00000000</c><c>  PAW_PBE H 15Jun2001                   </c></rc>
   </set>
  </array>
 </atominfo>
 <structure name="initialpos" >
  <crystal>
   <varray name="basis" >
    <v>      15.00000000       0.00000000       0.00000000 </v>
    <v>       0.00000000      15.00000000       0.00000000 </v>
    <v>       0.00000000       0.00000000      21.60000000 </v>
   </varray>
   <i name="volume">   4860.00000000 </i>
   <varray name="rec_basis" >
    <v>       0.06666667      -0.00000000       0.00000000 </v>
    <v>       0.00000000       0.06666667       0.00000000 </v>
    <v>      -0.00000000      -0.00000000       0.04629630 </v>
   </varray>
  </crystal>
  <varray name="positions" >
   <v>       0.00000000       0.00000000       0.00000000 </v>
   <v>       0.00000000       0.00000000       0.12500000 </v>
   <v>       0.00000000       0.00000000       0.25000000 </v>
   <v>       0.00000000       0.00000000       0.37500000 </v>
   <v>       0.00000000       0.00000000       0.50000000 </v>
   <v>       0.00000000       0.00000000       0.62500000 </v>
   <v>       0.00000000       0.00000000       0.75000000 </v>
   <v>       0.00000000       0.00000000       0.87500000 </v>
  </varray>
 </structure>
 <calculation>
  <scstep>
   <time name="dav">    0.77    0.77</time>
   <time name="total">    1.99    1.99</time>
   <energy>
    <i name="alphaZ">      0.03208122 </i>
    <i name="ewald">     12.30206674 </i>
    <i name="hartreedc">    -75.51845845 </i>
    <i name="XCdc">     15.25754250 </i>
    <i name="pawpsdc">     17.07221949 </i>
    <i name="pawaedc">    -17.14324176 </i>
    <i name="eentropy">     -0.00000000 </i>
    <i name="bandstr">    -34.71017803 </i>
    <i name="atom">     99.56620307 </i>
    <i name="e_fr_energy">     16.85823478 </i>
    <i name="e_wo_entrp">     16.85823478 </i>
    <i name="e_0_energy">     16.85823478 </i>
   </energy>
  </scstep>
  <scstep>
   <time name="dav">    1.31    1.31</time>
   <time name="total">    1.31    1.31</time>
   <energy>
    <i name="e_fr_energy">     -2.65425799 </i>
    <i name="e_wo_entrp">     -2.65328969 </i>
    <i name="e_0_energy">     -2.65377384 </i>
   </energy>
  </scstep>
  <scstep>
   <time name="dav">    0.95    0.95</time>
   <time name="total">    0.95    0.95</time>
   <energy>
    <i name="e_fr_energy">     -4.47700731 </i>
    <i name="e_wo_entrp">     -4.27140797 </i>
    <i name="e_0_energy">     -4.37420764 </i>
   </energy>
  </scstep>
  <scstep>
   <time name="dav">    0.97    0.97</time>
   <time name="total">    0.97    0.97</time>
   <energy>
    <i name="e_fr_energy">     -4.61208894 </i>
    <i name="e_wo_entrp">     -4.38639773 </i>
    <i name="e_0_energy">     -4.49924333 </i>
   </energy>
  </scstep>
  <scstep>
   <time name="dav">    0.87    0.87</time>
   <time name="total">    1.25    1.25</time>
   <energy>
    <i name="e_fr_energy">     -4.61411204 </i>
    <i name="e_wo_entrp">     -4.38841650 </i>
    <i name="e_0_energy">     -4.50126427 </i>
   </energy>
  </scstep>
  <scstep>
   <time name="dav">    0.78    0.78</time>
   <time name="total">    2.42    2.42</time>
   <energy>
    <i name="e_fr_energy">     -4.61805530 </i>
    <i name="e_wo_entrp">     -4.39235981 </i>
    <i name="e_0_energy">     -4.50520756 </i>
   </energy>
  </scstep>
  <scstep>
   <time name="dav">    0.78    0.78</time>
   <time name="total">    2.42    2.42</time>
   <energy>
    <i name="e_fr_energy">     -4.64013917 </i>
    <i name="e_wo_entrp">     -4.41444440 </i>
    <i name="e_0_energy">     -4.52729179 </i>
   </energy>
  </scstep>
  <scstep>
   <time name="dav">    0.88    0.88</time>
   <time name="total">    2.49    2.48</time>
   <energy>
    <i name="e_fr_energy">     -4.64176209 </i>
    <i name="e_wo_entrp">     -4.41606792 </i>
    <i name="e_0_energy">     -4.52891501 </i>
   </energy>
  </scstep>
  <scstep>
   <time name="dav">    0.87    0.87</time>
   <time name="total">    2.48    2.48</time>
   <energy>
    <i name="e_fr_energy">     -4.64198105 </i>
    <i name="e_wo_entrp">     -4.41628700 </i>
    <i name="e_0_energy">     -4.52913402 </i>
   </energy>
  </scstep>
  <scstep>
   <time name="dav">    0.77    0.77</time>
   <time name="total">    2.39    2.39</time>
   <energy>
    <i name="e_fr_energy">     -4.64201857 </i>
    <i name="e_wo_entrp">     -4.41632454 </i>
    <i name="e_0_energy">     -4.52917156 </i>
   </energy>
  </scstep>
  <scstep>
   <time name="dav">    0.88    0.88</time>
   <time name="total">    2.50    2.50</time>
   <energy>
    <i name="e_fr_energy">     -4.64208738 </i>
    <i name="e_wo_entrp">     -4.41639335 </i>
    <i name="e_0_energy">     -4.52924037 </i>
   </energy>
  </scstep>
  <scstep>
   <time name="dav">    0.77    0.77</time>
   <time name="total">    2.37    2.37</time>
   <energy>
    <i name="e_fr_energy">     -4.64210667 </i>
    <i name="e_wo_entrp">     -4.41641263 </i>
    <i name="e_0_energy">     -4.52925965 </i>
   </energy>
  </scstep>
  <scstep>
   <time name="dav">    0.78    0.78</time>
   <time name="total">    2.39    2.39</time>
   <energy>
    <i name="e_fr_energy">     -4.64212319 </i>
    <i name="e_wo_entrp">     -4.41642914 </i>
    <i name="e_0_energy">     -4.52927617 </i>
   </energy>
  </scstep>
  <scstep>
   <time name="dav">    0.64    0.64</time>
   <time name="total">    2.26    2.26</time>
   <energy>
    <i name="e_fr_energy">     -4.64212583 </i>
    <i name="e_wo_entrp">     -4.41643177 </i>
    <i name="e_0_energy">     -4.52927880 </i>
   </energy>
  </scstep>
  <scstep>
   <time name="dav">    0.60    0.60</time>
   <time name="total">    2.21    2.21</time>
   <energy>
    <i name="e_fr_energy">     -4.64213091 </i>
    <i name="e_wo_entrp">     -4.41643686 </i>
    <i name="e_0_energy">     -4.52928388 </i>
   </energy>
  </scstep>
  <scstep>
   <time name="dav">    0.60    0.60</time>
   <time name="total">    2.25    2.25</time>
   <energy>
    <i name="e_fr_energy">     -4.64213586 </i>
    <i name="e_wo_entrp">     -4.41644180 </i>
    <i name="e_0_energy">     -4.52928883 </i>
   </energy>
  </scstep>
  <scstep>
   <time name="dav">    0.59    0.59</time>
   <time name="total">    1.83    1.82</time>
   <energy>
    <i name="alphaZ">      0.03208122 </i>
    <i name="ewald">     12.30206674 </i>
    <i name="hartreedc">    -73.33281861 </i>
    <i name="XCdc">     14.74360454 </i>
    <i name="pawpsdc">     17.88835639 </i>
    <i name="pawaedc">    -17.94621947 </i>
    <i name="eentropy">     -0.22569405 </i>
    <i name="bandstr">    -57.66971638 </i>
    <i name="atom">     99.56620307 </i>
    <i name="e_fr_energy">     -4.64213656 </i>
    <i name="e_wo_entrp">     -4.41644251 </i>
    <i name="e_0_energy">     -4.52928954 </i>
   </energy>
  </scstep>
  <structure>
   <crystal>
    <varray name="basis" >
     <v>      15.00000000       0.00000000       0.00000000 </v>
     <v>       0.00000000      15.00000000       0.00000000 </v>
     <v>       0.00000000       0.00000000      21.60000000 </v>
    </varray>
    <i name="volume">   4860.00000000 </i>
    <varray name="rec_basis" >
     <v>       0.06666667      -0.00000000       0.00000000 </v>
     <v>       0.00000000       0.06666667       0.00000000 </v>
     <v>      -0.00000000      -0.00000000       0.04629630 </v>
    </varray>
   </crystal>
   <varray name="positions" >
    <v>       0.00000000       0.00000000       0.00000000 </v>
    <v>       0.00000000       0.00000000       0.12500000 </v>
    <v>       0.00000000       0.00000000       0.25000000 </v>
    <v>       0.00000000       0.00000000       0.37500000 </v>
    <v>       0.00000000       0.00000000       0.50000000 </v>
    <v>       0.00000000       0.00000000       0.62500000 </v>
    <v>       0.00000000       0.00000000       0.75000000 </v>
    <v>       0.00000000       0.00000000       0.87500000 </v>
   </varray>
  </structure>
  <varray name="forces" >
   <v>       0.00000000      -0.00000000      -0.00000000 </v>
   <v>       0.00000000       0.00000000       0.00000000 </v>
   <v>      -0.00000000      -0.00000000      -0.00000000 </v>
   <v>      -0.00000000      -0.00000000       0.00000000 </v>
   <v>       0.00000000      -0.00000000      -0.00000000 </v>
   <v>      -0.00000000       0.00000000       0.00000000 </v>
   <v>      -0.00000000       0.00000000       0.00000000 </v>
   <v>       0.00000000       0.00000000      -0.00000000 </v>
  </varray>
  <varray name="stress" >
   <v>      -0.28157502      -0.00000000      -0.00000000 </v>
   <v>      -0.00000000      -0.28157502      -0.00000000 </v>
   <v>      -0.00000000      -0.00000000      -5.13557277 </v>
  </varray>
  <energy>
   <i name="e_fr_energy">     -4.64213656 </i>
   <i name="e_wo_entrp">     -4.52928954 </i>
   <i name="e_0_energy">     -0.22569405 </i>
  </energy>
  <time name="totalsc">   36.79   36.78</time>
  <eigenvalues>
   <array>
    <dimension dim="1">band</dimension>
    <dimension dim="2">kpoint</dimension>
    <dimension dim="3">spin</dimension>
    <field>eigene</field>
    <field>occ</field>
    <set>
     <set comment="spin 1">
      <set comment="kpoint 1">
       <r>   -7.5297    1.0000 </r>
       <r>   -7.3064    1.0000 </r>
       <r>   -7.3064    1.0000 </r>
       <r>   -6.6923    0.5000 </r>
       <r>   -6.6923    0.5000 </r>
       <r>   -5.9158    0.0000 </r>
       <r>   -5.9158    0.0000 </r>
       <r>   -5.5124    0.0000 </r>
       <r>   -0.1216    0.0000 </r>
       <r>   -0.0493    0.0000 </r>
       <r>   -0.0493    0.0000 </r>
       <r>    0.1929    0.0000 </r>
      </set>
     </set>
     <set comment="spin 2">
      <set comment="kpoint 1">
       <r>   -7.5297    1.0000 </r>
       <r>   -7.3064    1.0000 </r>
       <r>   -7.3064    1.0000 </r>
       <r>   -6.6923    0.5000 </r>
       <r>   -6.6923    0.5000 </r>
       <r>   -5.9158    0.0000 </r>
       <r>   -5.9158    0.0000 </r>
       <r>   -5.5124    0.0000 </r>
       <r>   -0.1217    0.0000 </r>
       <r>   -0.0495    0.0000 </r>
       <r>   -0.0495    0.0000 </r>
       <r>    0.1929    0.0000 </r>
      </set>
     </set>
    </set>
   </array>
  </eigenvalues>
  <separator name="orbital magnetization" >
   <v name="MAGDIPOLOUT">      0.00000000      0.00000000      0.00000000</v>
  </separator>
  <dos>
   <i name="efermi">     -6.69232601 </i>
   <total>
    <array>
     <dimension dim="1">gridpoints</dimension>
     <dimension dim="2">spin</dimension>
     <field>energy</field>
     <field>total</field>
     <field>integrated</field>
     <set>
      <set comment="spin 1">
       <r>    -9.5297     0.0000     0.0000 </r>
       <r>    -9.4906     0.0000     0.0000 </r>
       <r>    -9.4515     0.0000     0.0000 </r>
       <r>    -9.4125     0.0000     0.0000 </r>
       <r>    -9.3734     0.0000     0.0000 </r>
       <r>    -9.3343     0.0000     0.0000 </r>
       <r>    -9.2952     0.0000     0.0000 </r>
       <r>    -9.2561     0.0000     0.0000 </r>
       <r>    -9.2171     0.0000     0.0000 </r>
       <r>    -9.1780     0.0000     0.0000 </r>
       <r>    -9.1389     0.0000     0.0000 </r>
       <r>    -9.0998     0.0000     0.0000 </r>
       <r>    -9.0608     0.0000     0.0000 </r>
       <r>    -9.0217     0.0000     0.0000 </r>
       <r>    -8.9826     0.0000     0.0000 </r>
       <r>    -8.9435     0.0000     0.0000 </r>
       <r>    -8.9045     0.0000     0.0000 </r>
       <r>    -8.8654     0.0000     0.0000 </r>
       <r>    -8.8263     0.0000     0.0000 </r>
       <r>    -8.7872     0.0000     0.0000 </r>
       <r>    -8.7482     0.0000     0.0000 </r>
       <r>    -8.7091     0.0000     0.0000 </r>
       <r>    -8.6700     0.0000     0.0000 </r>
       <r>    -8.6309     0.0000     0.0000 </r>
       <r>    -8.5919     0.0000     0.0000 </r>
       <r>    -8.5528     0.0000     0.0000 </r>
       <r>    -8.5137     0.0000     0.0000 </r>
       <r>    -8.4746     0.0000     0.0000 </r>
       <r>    -8.4356     0.0000     0.0000 </r>
       <r>    -8.3965     0.0000     0.0000 </r>
       <r>    -8.3574     0.0000     0.0000 </r>
       <r>    -8.3183     0.0000     0.0000 </r>
       <r>    -8.2793     0.0000     0.0000 </r>
       <r>    -8.2402     0.0000     0.0000 </r>
       <r>    -8.2011     0.0000     0.0000 </r>
       <r>    -8.1620     0.0001     0.0000 </r>
       <r>    -8.1230     0.0005     0.0000 </r>
       <r>    -8.0839     0.0016     0.0001 </r>
       <r>    -8.0448     0.0046     0.0003 </r>
       <r>    -8.0057     0.0126     0.0008 </r>
       <r>    -7.9667     0.0318     0.0020 </r>
       <r>    -7.9276     0.0745     0.0049 </r>
       <r>    -7.8885     0.1619     0.0112 </r>
       <r>    -7.8494     0.3264     0.0240 </r>
       <r>    -7.8104     0.6117     0.0479 </r>
       <r>    -7.7713     1.0665     0.0896 </r>
       <r>    -7.7322     1.7335     0.1573 </r>
       <r>    -7.6931     2.6341     0.2602 </r>
       <r>    -7.6541     3.7569     0.4070 </r>
       <r>    -7.6150     5.0558     0.6046 </r>
       <r>    -7.5759     6.4632     0.8572 </r>
       <r>    -7.5368     7.9082     1.1662 </r>
       <r>    -7.4978     9.3297     1.5307 </r>
       <r>    -7.4587    10.6696     1.9476 </r>
       <r>    -7.4196    11.8500     2.4107 </r>
       <r>    -7.3805    12.7518     2.9090 </r>
       <r>    -7.3415    13.2201     3.4255 </r>
       <r>    -7.3024    13.1065     3.9377 </r>
       <r>    -7.2633    12.3337     4.4196 </r>
       <r>    -7.2242    10.9468     4.8474 </r>
       <r>    -7.1852     9.1224     5.2038 </r>
       <r>    -7.1461     7.1253     5.4823 </r>
       <r>    -7.1070     5.2378     5.6869 </r>
       <r>    -7.0679     3.6947     5.8313 </r>
       <r>    -7.0289     2.6515     5.9349 </r>
       <r>    -6.9898     2.1888     6.0204 </r>
       <r>    -6.9507     2.3324     6.1116 </r>
       <r>    -6.9116     3.0678     6.2315 </r>
       <r>    -6.8726     4.3324     6.4007 </r>
       <r>    -6.8335     5.9908     6.6348 </r>
       <r>    -6.7944     7.8169     6.9403 </r>
       <r>    -6.7553     9.5070     7.3118 </r>
       <r>    -6.7163    10.7359     7.7313 </r>
       <r>    -6.6772    11.2437     8.1706 </r>
       <r>    -6.6381    10.9171     8.5972 </r>
       <r>    -6.5990     9.8260     8.9812 </r>
       <r>    -6.5600     8.1982     9.3015 </r>
       <r>    -6.5209     6.3408     9.5493 </r>
       <r>    -6.4818     4.5473     9.7270 </r>
       <r>    -6.4427     3.0269     9.8453 </r>
       <r>    -6.4037     1.8790     9.9187 </r>
       <r>    -6.3646     1.1105     9.9621 </r>
       <r>    -6.3255     0.6778     9.9886 </r>
       <r>    -6.2864     0.5320    10.0093 </r>
       <r>    -6.2474     0.6515    10.0348 </r>
       <r>    -6.2083     1.0544    10.0760 </r>
       <r>    -6.1692     1.7879    10.1459 </r>
       <r>    -6.1301     2.8980    10.2591 </r>
       <r>    -6.0910     4.3852    10.4305 </r>
       <r>    -6.0520     6.1612    10.6712 </r>
       <r>    -6.0129     8.0287    10.9849 </r>
       <r>    -5.9738     9.7041    11.3641 </r>
       <r>    -5.9347    10.8853    11.7895 </r>
       <r>    -5.8957    11.3478    12.2329 </r>
       <r>    -5.8566    11.0275    12.6638 </r>
       <r>    -5.8175    10.0532    13.0566 </r>
       <r>    -5.7784     8.7100    13.3970 </r>
       <r>    -5.7394     7.3465    13.6840 </r>
       <r>    -5.7003     6.2648    13.9288 </r>
       <r>    -5.6612     5.6335    14.1490 </r>
       <r>    -5.6221     5.4530    14.3620 </r>
       <r>    -5.5831     5.5787    14.5800 </r>
       <r>    -5.5440     5.7861    14.8061 </r>
       <r>    -5.5049     5.8543    15.0349 </r>
       <r>    -5.4658     5.6357    15.2551 </r>
       <r>    -5.4268     5.0927    15.4541 </r>
       <r>    -5.3877     4.2910    15.6218 </r>
       <r>    -5.3486     3.3605    15.7531 </r>
       <r>    -5.3095     2.4426    15.8485 </r>
       <r>    -5.2705     1.6466    15.9129 </r>
       <r>    -5.2314     1.0292    15.9531 </r>
       <r>    -5.1923     0.5964    15.9764 </r>
       <r>    -5.1532     0.3203    15.9889 </r>
       <r>    -5.1142     0.1595    15.9951 </r>
       <r>    -5.0751     0.0736    15.9980 </r>
       <r>    -5.0360     0.0315    15.9992 </r>
       <r>    -4.9969     0.0125    15.9997 </r>
       <r>    -4.9579     0.0046    15.9999 </r>
       <r>    -4.9188     0.0016    16.0000 </r>
       <r>    -4.8797     0.0005    16.0000 </r>
       <r>    -4.8406     0.0001    16.0000 </r>
       <r>    -4.8016     0.0000    16.0000 </r>
       <r>    -4.7625     0.0000    16.0000 </r>
       <r>    -4.7234     0.0000    16.0000 </r>
       <r>    -4.6843     0.0000    16.0000 </r>
       <r>    -4.6453     0.0000    16.0000 </r>
       <r>    -4.6062     0.0000    16.0000 </r>
       <r>    -4.5671     0.0000    16.0000 </r>
       <r>    -4.5280     0.0000    16.0000 </r>
       <r>    -4.4890     0.0000    16.0000 </r>
       <r>    -4.4499     0.0000    16.0000 </r>
       <r>    -4.4108     0.0000    16.0000 </r>
       <r>    -4.3717     0.0000    16.0000 </r>
       <r>    -4.3327     0.0000    16.0000 </r>
       <r>    -4.2936     0.0000    16.0000 </r>
       <r>    -4.2545     0.0000    16.0000 </r>
       <r>    -4.2154     0.0000    16.0000 </r>
       <r>    -4.1764     0.0000    16.0000 </r>
       <r>    -4.1373     0.0000    16.0000 </r>
       <r>    -4.0982     0.0000    16.0000 </r>
       <r>    -4.0591     0.0000    16.0000 </r>
       <r>    -4.0201     0.0000    16.0000 </r>
       <r>    -3.9810     0.0000    16.0000 </r>
       <r>    -3.9419     0.0000    16.0000 </r>
       <r>    -3.9028     0.0000    16.0000 </r>
       <r>    -3.8638     0.0000    16.0000 </r>
       <r>    -3.8247     0.0000    16.0000 </r>
       <r>    -3.7856     0.0000    16.0000 </r>
       <r>    -3.7465     0.0000    16.0000 </r>
       <r>    -3.7075     0.0000    16.0000 </r>
       <r>    -3.6684     0.0000    16.0000 </r>
       <r>    -3.6293     0.0000    16.0000 </r>
       <r>    -3.5902     0.0000    16.0000 </r>
       <r>    -3.5512     0.0000    16.0000 </r>
       <r>    -3.5121     0.0000    16.0000 </r>
       <r>    -3.4730     0.0000    16.0000 </r>
       <r>    -3.4339     0.0000    16.0000 </r>
       <r>    -3.3949     0.0000    16.0000 </r>
       <r>    -3.3558     0.0000    16.0000 </r>
       <r>    -3.3167     0.0000    16.0000 </r>
       <r>    -3.2776     0.0000    16.0000 </r>
       <r>    -3.2386     0.0000    16.0000 </r>
       <r>    -3.1995     0.0000    16.0000 </r>
       <r>    -3.1604     0.0000    16.0000 </r>
       <r>    -3.1213     0.0000    16.0000 </r>
       <r>    -3.0822     0.0000    16.0000 </r>
       <r>    -3.0432     0.0000    16.0000 </r>
       <r>    -3.0041     0.0000    16.0000 </r>
       <r>    -2.9650     0.0000    16.0000 </r>
       <r>    -2.9259     0.0000    16.0000 </r>
       <r>    -2.8869     0.0000    16.0000 </r>
       <r>    -2.8478     0.0000    16.0000 </r>
       <r>    -2.8087     0.0000    16.0000 </r>
       <r>    -2.7696     0.0000    16.0000 </r>
       <r>    -2.7306     0.0000    16.0000 </r>
       <r>    -2.6915     0.0000    16.0000 </r>
       <r>    -2.6524     0.0000    16.0000 </r>
       <r>    -2.6133     0.0000    16.0000 </r>
       <r>    -2.5743     0.0000    16.0000 </r>
       <r>    -2.5352     0.0000    16.0000 </r>
       <r>    -2.4961     0.0000    16.0000 </r>
       <r>    -2.4570     0.0000    16.0000 </r>
       <r>    -2.4180     0.0000    16.0000 </r>
       <r>    -2.3789     0.0000    16.0000 </r>
       <r>    -2.3398     0.0000    16.0000 </r>
       <r>    -2.3007     0.0000    16.0000 </r>
       <r>    -2.2617     0.0000    16.0000 </r>
       <r>    -2.2226     0.0000    16.0000 </r>
       <r>    -2.1835     0.0000    16.0000 </r>
       <r>    -2.1444     0.0000    16.0000 </r>
       <r>    -2.1054     0.0000    16.0000 </r>
       <r>    -2.0663     0.0000    16.0000 </r>
       <r>    -2.0272     0.0000    16.0000 </r>
       <r>    -1.9881     0.0000    16.0000 </r>
       <r>    -1.9491     0.0000    16.0000 </r>
       <r>    -1.9100     0.0000    16.0000 </r>
       <r>    -1.8709     0.0000    16.0000 </r>
       <r>    -1.8318     0.0000    16.0000 </r>
       <r>    -1.7928     0.0000    16.0000 </r>
       <r>    -1.7537     0.0000    16.0000 </r>
       <r>    -1.7146     0.0000    16.0000 </r>
       <r>    -1.6755     0.0000    16.0000 </r>
       <r>    -1.6365     0.0000    16.0000 </r>
       <r>    -1.5974     0.0000    16.0000 </r>
       <r>    -1.5583     0.0000    16.0000 </r>
       <r>    -1.5192     0.0000    16.0000 </r>
       <r>    -1.4802     0.0000    16.0000 </r>
       <r>    -1.4411     0.0000    16.0000 </r>
       <r>    -1.4020     0.0000    16.0000 </r>
       <r>    -1.3629     0.0000    16.0000 </r>
       <r>    -1.3239     0.0000    16.0000 </r>
       <r>    -1.2848     0.0000    16.0000 </r>
       <r>    -1.2457     0.0000    16.0000 </r>
       <r>    -1.2066     0.0000    16.0000 </r>
       <r>    -1.1676     0.0000    16.0000 </r>
       <r>    -1.1285     0.0000    16.0000 </r>
       <r>    -1.0894     0.0000    16.0000 </r>
       <r>    -1.0503     0.0000    16.0000 </r>
       <r>    -1.0113     0.0000    16.0000 </r>
       <r>    -0.9722     0.0000    16.0000 </r>
       <r>    -0.9331     0.0000    16.0000 </r>
       <r>    -0.8940     0.0000    16.0000 </r>
       <r>    -0.8550     0.0000    16.0000 </r>
       <r>    -0.8159     0.0000    16.0000 </r>
       <r>    -0.7768     0.0001    16.0000 </r>
       <r>    -0.7377     0.0003    16.0000 </r>
       <r>    -0.6987     0.0010    16.0001 </r>
       <r>    -0.6596     0.0031    16.0002 </r>
       <r>    -0.6205     0.0090    16.0005 </r>
       <r>    -0.5814     0.0245    16.0015 </r>
       <r>    -0.5424     0.0620    16.0039 </r>
       <r>    -0.5033     0.1460    16.0096 </r>
       <r>    -0.4642     0.3198    16.0221 </r>
       <r>    -0.4251     0.6524    16.0476 </r>
       <r>    -0.3861     1.2394    16.0960 </r>
       <r>    -0.3470     2.1929    16.1817 </r>
       <r>    -0.3079     3.6153    16.3230 </r>
       <r>    -0.2688     5.5549    16.5400 </r>
       <r>    -0.2298     7.9581    16.8510 </r>
       <r>    -0.1907    10.6370    17.2667 </r>
       <r>    -0.1516    13.2778    17.7855 </r>
       <r>    -0.1125    15.5033    18.3913 </r>
       <r>    -0.0734    16.9751    19.0546 </r>
       <r>    -0.0344    17.4988    19.7384 </r>
       <r>     0.0047    17.0834    20.4059 </r>
       <r>     0.0438    15.9247    21.0282 </r>
       <r>     0.0829    14.3203    21.5877 </r>
       <r>     0.1219    12.5577    22.0784 </r>
       <r>     0.1610    10.8302    22.5016 </r>
       <r>     0.2001     9.2141    22.8617 </r>
       <r>     0.2392     7.7039    23.1627 </r>
       <r>     0.2782     6.2722    23.4078 </r>
       <r>     0.3173     4.9159    23.5999 </r>
       <r>     0.3564     3.6694    23.7433 </r>
       <r>     0.3955     2.5858    23.8443 </r>
       <r>     0.4345     1.7095    23.9111 </r>
       <r>     0.4736     1.0557    23.9524 </r>
       <r>     0.5127     0.6073    23.9761 </r>
       <r>     0.5518     0.3248    23.9888 </r>
       <r>     0.5908     0.1613    23.9951 </r>
       <r>     0.6299     0.0744    23.9980 </r>
       <r>     0.6690     0.0318    23.9992 </r>
       <r>     0.7081     0.0126    23.9997 </r>
       <r>     0.7471     0.0046    23.9999 </r>
       <r>     0.7862     0.0016    24.0000 </r>
       <r>     0.8253     0.0005    24.0000 </r>
       <r>     0.8644     0.0001    24.0000 </r>
       <r>     0.9034     0.0000    24.0000 </r>
       <r>     0.9425     0.0000    24.0000 </r>
       <r>     0.9816     0.0000    24.0000 </r>
       <r>     1.0207     0.0000    24.0000 </r>
       <r>     1.0597     0.0000    24.0000 </r>
       <r>     1.0988     0.0000    24.0000 </r>
       <r>     1.1379     0.0000    24.0000 </r>
       <r>     1.1770     0.0000    24.0000 </r>
       <r>     1.2160     0.0000    24.0000 </r>
       <r>     1.2551     0.0000    24.0000 </r>
       <r>     1.2942     0.0000    24.0000 </r>
       <r>     1.3333     0.0000    24.0000 </r>
       <r>     1.3723     0.0000    24.0000 </r>
       <r>     1.4114     0.0000    24.0000 </r>
       <r>     1.4505     0.0000    24.0000 </r>
       <r>     1.4896     0.0000    24.0000 </r>
       <r>     1.5286     0.0000    24.0000 </r>
       <r>     1.5677     0.0000    24.0000 </r>
       <r>     1.6068     0.0000    24.0000 </r>
       <r>     1.6459     0.0000    24.0000 </r>
       <r>     1.6849     0.0000    24.0000 </r>
       <r>     1.7240     0.0000    24.0000 </r>
       <r>     1.7631     0.0000    24.0000 </r>
       <r>     1.8022     0.0000    24.0000 </r>
       <r>     1.8412     0.0000    24.0000 </r>
       <r>     1.8803     0.0000    24.0000 </r>
       <r>     1.9194     0.0000    24.0000 </r>
       <r>     1.9585     0.0000    24.0000 </r>
       <r>     1.9975     0.0000    24.0000 </r>
       <r>     2.0366     0.0000    24.0000 </r>
       <r>     2.0757     0.0000    24.0000 </r>
       <r>     2.1148     0.0000    24.0000 </r>
       <r>     2.1538     0.0000    24.0000 </r>
       <r>     2.1929     0.0000    24.0000 </r>
      </set>
      <set comment="spin 2">
       <r>    -9.5297     0.0000     0.0000 </r>
       <r>    -9.4906     0.0000     0.0000 </r>
       <r>    -9.4515     0.0000     0.0000 </r>
       <r>    -9.4125     0.0000     0.0000 </r>
       <r>    -9.3734     0.0000     0.0000 </r>
       <r>    -9.3343     0.0000     0.0000 </r>
       <r>    -9.2952     0.0000     0.0000 </r>
       <r>    -9.2561     0.0000     0.0000 </r>
       <r>    -9.2171     0.0000     0.0000 </r>
       <r>    -9.1780     0.0000     0.0000 </r>
       <r>    -9.1389     0.0000     0.0000 </r>
       <r>    -9.0998     0.0000     0.0000 </r>
       <r>    -9.0608     0.0000     0.0000 </r>
       <r>    -9.0217     0.0000     0.0000 </r>
       <r>    -8.9826     0.0000     0.0000 </r>
       <r>    -8.9435     0.0000     0.0000 </r>
       <r>    -8.9045     0.0000     0.0000 </r>
       <r>    -8.8654     0.0000     0.0000 </r>
       <r>    -8.8263     0.0000     0.0000 </r>
       <r>    -8.7872     0.0000     0.0000 </r>
       <r>    -8.7482     0.0000     0.0000 </r>
       <r>    -8.7091     0.0000     0.0000 </r>
       <r>    -8.6700     0.0000     0.0000 </r>
       <r>    -8.6309     0.0000     0.0000 </r>
       <r>    -8.5919     0.0000     0.0000 </r>
       <r>    -8.5528     0.0000     0.0000 </r>
       <r>    -8.5137     0.0000     0.0000 </r>
       <r>    -8.4746     0.0000     0.0000 </r>
       <r>    -8.4356     0.0000     0.0000 </r>
       <r>    -8.3965     0.0000     0.0000 </r>
       <r>    -8.3574     0.0000     0.0000 </r>
       <r>    -8.3183     0.0000     0.0000 </r>
       <r>    -8.2793     0.0000     0.0000 </r>
       <r>    -8.2402     0.0000     0.0000 </r>
       <r>    -8.2011     0.0000     0.0000 </r>
       <r>    -8.1620     0.0001     0.0000 </r>
       <r>    -8.1230     0.0005     0.0000 </r>
       <r>    -8.0839     0.0016     0.0001 </r>
       <r>    -8.0448     0.0046     0.0003 </r>
       <r>    -8.0057     0.0126     0.0008 </r>
       <r>    -7.9667     0.0318     0.0020 </r>
       <r>    -7.9276     0.0745     0.0049 </r>
       <r>    -7.8885     0.1619     0.0112 </r>
       <r>    -7.8494     0.3264     0.0240 </r>
       <r>    -7.8104     0.6117     0.0479 </r>
       <r>    -7.7713     1.0665     0.0896 </r>
       <r>    -7.7322     1.7335     0.1573 </r>
       <r>    -7.6931     2.6341     0.2602 </r>
       <r>    -7.6541     3.7568     0.4070 </r>
       <r>    -7.6150     5.0557     0.6046 </r>
       <r>    -7.5759     6.4631     0.8571 </r>
       <r>    -7.5368     7.9081     1.1662 </r>
       <r>    -7.4978     9.3296     1.5307 </r>
       <r>    -7.4587    10.6695     1.9476 </r>
       <r>    -7.4196    11.8499     2.4107 </r>
       <r>    -7.3805    12.7517     2.9089 </r>
       <r>    -7.3415    13.2201     3.4255 </r>
       <r>    -7.3024    13.1066     3.9377 </r>
       <r>    -7.2633    12.3337     4.4196 </r>
       <r>    -7.2242    10.9469     4.8474 </r>
       <r>    -7.1852     9.1225     5.2038 </r>
       <r>    -7.1461     7.1254     5.4823 </r>
       <r>    -7.1070     5.2379     5.6869 </r>
       <r>    -7.0679     3.6947     5.8313 </r>
       <r>    -7.0289     2.6516     5.9349 </r>
       <r>    -6.9898     2.1888     6.0204 </r>
       <r>    -6.9507     2.3323     6.1116 </r>
       <r>    -6.9116     3.0678     6.2314 </r>
       <r>    -6.8726     4.3323     6.4007 </r>
       <r>    -6.8335     5.9907     6.6348 </r>
       <r>    -6.7944     7.8168     6.9403 </r>
       <r>    -6.7553     9.5069     7.3117 </r>
       <r>    -6.7163    10.7358     7.7313 </r>
       <r>    -6.6772    11.2437     8.1706 </r>
       <r>    -6.6381    10.9171     8.5972 </r>
       <r>    -6.5990     9.8261     8.9812 </r>
       <r>    -6.5600     8.1983     9.3015 </r>
       <r>    -6.5209     6.3409     9.5493 </r>
       <r>    -6.4818     4.5474     9.7270 </r>
       <r>    -6.4427     3.0270     9.8452 </r>
       <r>    -6.4037     1.8791     9.9187 </r>
       <r>    -6.3646     1.1105     9.9621 </r>
       <r>    -6.3255     0.6778     9.9886 </r>
       <r>    -6.2864     0.5320    10.0093 </r>
       <r>    -6.2474     0.6515    10.0348 </r>
       <r>    -6.2083     1.0544    10.0760 </r>
       <r>    -6.1692     1.7878    10.1459 </r>
       <r>    -6.1301     2.8979    10.2591 </r>
       <r>    -6.0910     4.3851    10.4304 </r>
       <r>    -6.0520     6.1610    10.6712 </r>
       <r>    -6.0129     8.0286    10.9849 </r>
       <r>    -5.9738     9.7040    11.3641 </r>
       <r>    -5.9347    10.8853    11.7894 </r>
       <r>    -5.8957    11.3478    12.2329 </r>
       <r>    -5.8566    11.0275    12.6638 </r>
       <r>    -5.8175    10.0533    13.0566 </r>
       <r>    -5.7784     8.7100    13.3969 </r>
       <r>    -5.7394     7.3466    13.6840 </r>
       <r>    -5.7003     6.2648    13.9288 </r>
       <r>    -5.6612     5.6335    14.1489 </r>
       <r>    -5.6221     5.4530    14.3620 </r>
       <r>    -5.5831     5.5786    14.5800 </r>
       <r>    -5.5440     5.7861    14.8061 </r>
       <r>    -5.5049     5.8543    15.0349 </r>
       <r>    -5.4658     5.6358    15.2551 </r>
       <r>    -5.4268     5.0927    15.4541 </r>
       <r>    -5.3877     4.2910    15.6218 </r>
       <r>    -5.3486     3.3606    15.7531 </r>
       <r>    -5.3095     2.4426    15.8485 </r>
       <r>    -5.2705     1.6467    15.9129 </r>
       <r>    -5.2314     1.0293    15.9531 </r>
       <r>    -5.1923     0.5964    15.9764 </r>
       <r>    -5.1532     0.3204    15.9889 </r>
       <r>    -5.1142     0.1595    15.9951 </r>
       <r>    -5.0751     0.0736    15.9980 </r>
       <r>    -5.0360     0.0315    15.9992 </r>
       <r>    -4.9969     0.0125    15.9997 </r>
       <r>    -4.9579     0.0046    15.9999 </r>
       <r>    -4.9188     0.0016    16.0000 </r>
       <r>    -4.8797     0.0005    16.0000 </r>
       <r>    -4.8406     0.0001    16.0000 </r>
       <r>    -4.8016     0.0000    16.0000 </r>
       <r>    -4.7625     0.0000    16.0000 </r>
       <r>    -4.7234     0.0000    16.0000 </r>
       <r>    -4.6843     0.0000    16.0000 </r>
       <r>    -4.6453     0.0000    16.0000 </r>
       <r>    -4.6062     0.0000    16.0000 </r>
       <r>    -4.5671     0.0000    16.0000 </r>
       <r>    -4.5280     0.0000    16.0000 </r>
       <r>    -4.4890     0.0000    16.0000 </r>
       <r>    -4.4499     0.0000    16.0000 </r>
       <r>    -4.4108     0.0000    16.0000 </r>
       <r>    -4.3717     0.0000    16.0000 </r>
       <r>    -4.3327     0.0000    16.0000 </r>
       <r>    -4.2936     0.0000    16.0000 </r>
       <r>    -4.2545     0.0000    16.0000 </r>
       <r>    -4.2154     0.0000    16.0000 </r>
       <r>    -4.1764     0.0000    16.0000 </r>
       <r>    -4.1373     0.0000    16.0000 </r>
       <r>    -4.0982     0.0000    16.0000 </r>
       <r>    -4.0591     0.0000    16.0000 </r>
       <r>    -4.0201     0.0000    16.0000 </r>
       <r>    -3.9810     0.0000    16.0000 </r>
       <r>    -3.9419     0.0000    16.0000 </r>
       <r>    -3.9028     0.0000    16.0000 </r>
       <r>    -3.8638     0.0000    16.0000 </r>
       <r>    -3.8247     0.0000    16.0000 </r>
       <r>    -3.7856     0.0000    16.0000 </r>
       <r>    -3.7465     0.0000    16.0000 </r>
       <r>    -3.7075     0.0000    16.0000 </r>
       <r>    -3.6684     0.0000    16.0000 </r>
       <r>    -3.6293     0.0000    16.0000 </r>
       <r>    -3.5902     0.0000    16.0000 </r>
       <r>    -3.5512     0.0000    16.0000 </r>
       <r>    -3.5121     0.0000    16.0000 </r>
       <r>    -3.4730     0.0000    16.0000 </r>
       <r>    -3.4339     0.0000    16.0000 </r>
       <r>    -3.3949     0.0000    16.0000 </r>
       <r>    -3.3558     0.0000    16.0000 </r>
       <r>    -3.3167     0.0000    16.0000 </r>
       <r>    -3.2776     0.0000    16.0000 </r>
       <r>    -3.2386     0.0000    16.0000 </r>
       <r>    -3.1995     0.0000    16.0000 </r>
       <r>    -3.1604     0.0000    16.0000 </r>
       <r>    -3.1213     0.0000    16.0000 </r>
       <r>    -3.0822     0.0000    16.0000 </r>
       <r>    -3.0432     0.0000    16.0000 </r>
       <r>    -3.0041     0.0000    16.0000 </r>
       <r>    -2.9650     0.0000    16.0000 </r>
       <r>    -2.9259     0.0000    16.0000 </r>
       <r>    -2.8869     0.0000    16.0000 </r>
       <r>    -2.8478     0.0000    16.0000 </r>
       <r>    -2.8087     0.0000    16.0000 </r>
       <r>    -2.7696     0.0000    16.0000 </r>
       <r>    -2.7306     0.0000    16.0000 </r>
       <r>    -2.6915     0.0000    16.0000 </r>
       <r>    -2.6524     0.0000    16.0000 </r>
       <r>    -2.6133     0.0000    16.0000 </r>
       <r>    -2.5743     0.0000    16.0000 </r>
       <r>    -2.5352     0.0000    16.0000 </r>
       <r>    -2.4961     0.0000    16.0000 </r>
       <r>    -2.4570     0.0000    16.0000 </r>
       <r>    -2.4180     0.0000    16.0000 </r>
       <r>    -2.3789     0.0000    16.0000 </r>
       <r>    -2.3398     0.0000    16.0000 </r>
       <r>    -2.3007     0.0000    16.0000 </r>
       <r>    -2.2617     0.0000    16.0000 </r>
       <r>    -2.2226     0.0000    16.0000 </r>
       <r>    -2.1835     0.0000    16.0000 </r>
       <r>    -2.1444     0.0000    16.0000 </r>
       <r>    -2.1054     0.0000    16.0000 </r>
       <r>    -2.0663     0.0000    16.0000 </r>
       <r>    -2.0272     0.0000    16.0000 </r>
       <r>    -1.9881     0.0000    16.0000 </r>
       <r>    -1.9491     0.0000    16.0000 </r>
       <r>    -1.9100     0.0000    16.0000 </r>
       <r>    -1.8709     0.0000    16.0000 </r>
       <r>    -1.8318     0.0000    16.0000 </r>
       <r>    -1.7928     0.0000    16.0000 </r>
       <r>    -1.7537     0.0000    16.0000 </r>
       <r>    -1.7146     0.0000    16.0000 </r>
       <r>    -1.6755     0.0000    16.0000 </r>
       <r>    -1.6365     0.0000    16.0000 </r>
       <r>    -1.5974     0.0000    16.0000 </r>
       <r>    -1.5583     0.0000    16.0000 </r>
       <r>    -1.5192     0.0000    16.0000 </r>
       <r>    -1.4802     0.0000    16.0000 </r>
       <r>    -1.4411     0.0000    16.0000 </r>
       <r>    -1.4020     0.0000    16.0000 </r>
       <r>    -1.3629     0.0000    16.0000 </r>
       <r>    -1.3239     0.0000    16.0000 </r>
       <r>    -1.2848     0.0000    16.0000 </r>
       <r>    -1.2457     0.0000    16.0000 </r>
       <r>    -1.2066     0.0000    16.0000 </r>
       <r>    -1.1676     0.0000    16.0000 </r>
       <r>    -1.1285     0.0000    16.0000 </r>
       <r>    -1.0894     0.0000    16.0000 </r>
       <r>    -1.0503     0.0000    16.0000 </r>
       <r>    -1.0113     0.0000    16.0000 </r>
       <r>    -0.9722     0.0000    16.0000 </r>
       <r>    -0.9331     0.0000    16.0000 </r>
       <r>    -0.8940     0.0000    16.0000 </r>
       <r>    -0.8550     0.0000    16.0000 </r>
       <r>    -0.8159     0.0000    16.0000 </r>
       <r>    -0.7768     0.0001    16.0000 </r>
       <r>    -0.7377     0.0003    16.0000 </r>
       <r>    -0.6987     0.0010    16.0001 </r>
       <r>    -0.6596     0.0031    16.0002 </r>
       <r>    -0.6205     0.0090    16.0005 </r>
       <r>    -0.5814     0.0246    16.0015 </r>
       <r>    -0.5424     0.0622    16.0039 </r>
       <r>    -0.5033     0.1463    16.0096 </r>
       <r>    -0.4642     0.3206    16.0222 </r>
       <r>    -0.4251     0.6540    16.0477 </r>
       <r>    -0.3861     1.2422    16.0963 </r>
       <r>    -0.3470     2.1977    16.1821 </r>
       <r>    -0.3079     3.6225    16.3237 </r>
       <r>    -0.2688     5.5649    16.5411 </r>
       <r>    -0.2298     7.9707    16.8526 </r>
       <r>    -0.1907    10.6511    17.2688 </r>
       <r>    -0.1516    13.2917    17.7882 </r>
       <r>    -0.1125    15.5146    18.3944 </r>
       <r>    -0.0734    16.9818    19.0580 </r>
       <r>    -0.0344    17.4996    19.7418 </r>
       <r>     0.0047    17.0783    20.4091 </r>
       <r>     0.0438    15.9150    21.0310 </r>
       <r>     0.0829    14.3080    21.5901 </r>
       <r>     0.1219    12.5448    22.0803 </r>
       <r>     0.1610    10.8184    22.5030 </r>
       <r>     0.2001     9.2044    22.8627 </r>
       <r>     0.2392     7.6964    23.1634 </r>
       <r>     0.2782     6.2666    23.4083 </r>
       <r>     0.3173     4.9119    23.6002 </r>
       <r>     0.3564     3.6665    23.7435 </r>
       <r>     0.3955     2.5838    23.8445 </r>
       <r>     0.4345     1.7081    23.9112 </r>
       <r>     0.4736     1.0548    23.9524 </r>
       <r>     0.5127     0.6067    23.9761 </r>
       <r>     0.5518     0.3245    23.9888 </r>
       <r>     0.5908     0.1611    23.9951 </r>
       <r>     0.6299     0.0743    23.9980 </r>
       <r>     0.6690     0.0318    23.9992 </r>
       <r>     0.7081     0.0126    23.9997 </r>
       <r>     0.7471     0.0046    23.9999 </r>
       <r>     0.7862     0.0016    24.0000 </r>
       <r>     0.8253     0.0005    24.0000 </r>
       <r>     0.8644     0.0001    24.0000 </r>
       <r>     0.9034     0.0000    24.0000 </r>
       <r>     0.9425     0.0000    24.0000 </r>
       <r>     0.9816     0.0000    24.0000 </r>
       <r>     1.0207     0.0000    24.0000 </r>
       <r>     1.0597     0.0000    24.0000 </r>
       <r>     1.0988     0.0000    24.0000 </r>
       <r>     1.1379     0.0000    24.0000 </r>
       <r>     1.1770     0.0000    24.0000 </r>
       <r>     1.2160     0.0000    24.0000 </r>
       <r>     1.2551     0.0000    24.0000 </r>
       <r>     1.2942     0.0000    24.0000 </r>
       <r>     1.3333     0.0000    24.0000 </r>
       <r>     1.3723     0.0000    24.0000 </r>
       <r>     1.4114     0.0000    24.0000 </r>
       <r>     1.4505     0.0000    24.0000 </r>
       <r>     1.4896     0.0000    24.0000 </r>
       <r>     1.5286     0.0000    24.0000 </r>
       <r>     1.5677     0.0000    24.0000 </r>
       <r>     1.6068     0.0000    24.0000 </r>
       <r>     1.6459     0.0000    24.0000 </r>
       <r>     1.6849     0.0000    24.0000 </r>
       <r>     1.7240     0.0000    24.0000 </r>
       <r>     1.7631     0.0000    24.0000 </r>
       <r>     1.8022     0.0000    24.0000 </r>
       <r>     1.8412     0.0000    24.0000 </r>
       <r>     1.8803     0.0000    24.0000 </r>
       <r>     1.9194     0.0000    24.0000 </r>
       <r>     1.9585     0.0000    24.0000 </r>
       <r>     1.9975     0.0000    24.0000 </r>
       <r>     2.0366     0.0000    24.0000 </r>
       <r>     2.0757     0.0000    24.0000 </r>
       <r>     2.1148     0.0000    24.0000 </r>
       <r>     2.1538     0.0000    24.0000 </r>
       <r>     2.1929     0.0000    24.0000 </r>
      </set>
     </set>
    </array>
   </total>
  </dos>
 </calculation>
 <structure name="finalpos" >
  <crystal>
   <varray name="basis" >
    <v>      15.00000000       0.00000000       0.00000000 </v>
    <v>       0.00000000      15.00000000       0.00000000 </v>
    <v>       0.00000000       0.00000000      21.60000000 </v>
   </varray>
   <i name="volume">   4860.00000000 </i>
   <varray name="rec_basis" >
    <v>       0.06666667      -0.00000000       0.00000000 </v>
    <v>       0.00000000       0.06666667       0.00000000 </v>
    <v>      -0.00000000      -0.00000000       0.04629630 </v>
   </varray>
  </crystal>
  <varray name="positions" >
   <v>       0.00000000       0.00000000       0.00000000 </v>
   <v>       0.00000000       0.00000000       0.12500000 </v>
   <v>       0.00000000       0.00000000       0.25000000 </v>
   <v>       0.00000000       0.00000000       0.37500000 </v>
   <v>       0.00000000       0.00000000       0.50000000 </v>
   <v>       0.00000000       0.00000000       0.62500000 </v>
   <v>       0.00000000       0.00000000       0.75000000 </v>
   <v>       0.00000000       0.00000000       0.87500000 </v>
  </varray>
 </structure>
</modeling>
