   8   8   0   0
  0.5175000E+03  0.1500000E-08  0.1500000E-08  0.1840000E-08  0.5000000E-15
  1.000000000000000E-004
  CAR 
 unknown system                          
      2.30026216    -10.07805691  301     -6.70237013      1.00000000
    -10.078  0.0000E+00  0.0000E+00  0.0000E+00  0.0000E+00
    -10.037  0.0000E+00  0.0000E+00  0.0000E+00  0.0000E+00
     -9.996  0.0000E+00  0.0000E+00  0.0000E+00  0.0000E+00
     -9.954  0.0000E+00  0.0000E+00  0.0000E+00  0.0000E+00
     -9.913  0.0000E+00  0.0000E+00  0.0000E+00  0.0000E+00
     -9.872  0.0000E+00  0.0000E+00  0.0000E+00  0.0000E+00
     -9.830  0.0000E+00  0.0000E+00  0.0000E+00  0.0000E+00
     -9.789  0.0000E+00  0.0000E+00  0.0000E+00  0.0000E+00
     -9.748  0.0000E+00  0.0000E+00  0.0000E+00  0.0000E+00
     -9.707  0.0000E+00  0.0000E+00  0.0000E+00  0.0000E+00
     -9.665  0.0000E+00  0.0000E+00  0.0000E+00  0.0000E+00
     -9.624  0.0000E+00  0.0000E+00  0.0000E+00  0.0000E+00
     -9.583  0.0000E+00  0.0000E+00  0.0000E+00  0.0000E+00
     -9.542  0.0000E+00  0.0000E+00  0.0000E+00  0.0000E+00
     -9.500  0.0000E+00  0.0000E+00  0.0000E+00  0.0000E+00
     -9.459  0.0000E+00  0.0000E+00  0.0000E+00  0.0000E+00
     -9.418  0.0000E+00  0.0000E+00  0.0000E+00  0.0000E+00
     -9.377  0.0000E+00  0.0000E+00  0.0000E+00  0.0000E+00
     -9.335  0.0000E+00  0.0000E+00  0.0000E+00  0.0000E+00
     -9.294  0.0000E+00  0.0000E+00  0.0000E+00  0.0000E+00
     -9.253  0.2691E-14  0.2691E-14  0.1110E-15  0.1110E-15
     -9.212  0.2422E-13  0.2422E-13  0.1110E-14  0.1110E-14
     -9.170  0.2475E-12  0.2475E-12  0.1132E-13  0.1132E-13
     -9.129  0.2325E-11  0.2325E-11  0.1072E-12  0.1072E-12
     -9.088  0.2003E-10  0.2004E-10  0.9337E-12  0.9340E-12
     -9.047  0.1586E-09  0.1587E-09  0.7480E-11  0.7482E-11
     -9.005  0.1155E-08  0.1155E-08  0.5512E-10  0.5513E-10
     -8.964  0.7720E-08  0.7722E-08  0.3736E-09  0.3737E-09
     -8.923  0.4743E-07  0.4744E-07  0.2331E-08  0.2331E-08
     -8.881  0.2678E-06  0.2678E-06  0.1338E-07  0.1338E-07
     -8.840  0.1389E-05  0.1390E-05  0.7070E-07  0.7072E-07
     -8.799  0.6623E-05  0.6624E-05  0.3440E-06  0.3440E-06
     -8.758  0.2901E-04  0.2901E-04  0.1541E-05  0.1541E-05
     -8.716  0.1168E-03  0.1168E-03  0.6359E-05  0.6360E-05
     -8.675  0.4319E-03  0.4319E-03  0.2418E-04  0.2418E-04
     -8.634  0.1468E-02  0.1468E-02  0.8474E-04  0.8475E-04
     -8.593  0.4584E-02  0.4585E-02  0.2739E-03  0.2739E-03
     -8.551  0.1316E-01  0.1316E-01  0.8167E-03  0.8168E-03
     -8.510  0.3470E-01  0.3470E-01  0.2248E-02  0.2249E-02
     -8.469  0.8409E-01  0.8410E-01  0.5718E-02  0.5719E-02
     -8.428  0.1873E+00  0.1873E+00  0.1345E-01  0.1345E-01
     -8.386  0.3833E+00  0.3833E+00  0.2926E-01  0.2926E-01
     -8.345  0.7210E+00  0.7211E+00  0.5901E-01  0.5901E-01
     -8.304  0.1247E+01  0.1247E+01  0.1104E+00  0.1105E+00
     -8.263  0.1982E+01  0.1982E+01  0.1922E+00  0.1922E+00
     -8.221  0.2899E+01  0.2899E+01  0.3118E+00  0.3119E+00
     -8.180  0.3906E+01  0.3906E+01  0.4730E+00  0.4730E+00
     -8.139  0.4861E+01  0.4861E+01  0.6736E+00  0.6736E+00
     -8.098  0.5618E+01  0.5618E+01  0.9054E+00  0.9054E+00
     -8.056  0.6090E+01  0.6091E+01  0.1157E+01  0.1157E+01
     -8.015  0.6311E+01  0.6311E+01  0.1417E+01  0.1417E+01
     -7.974  0.6439E+01  0.6439E+01  0.1683E+01  0.1683E+01
     -7.932  0.6704E+01  0.6704E+01  0.1959E+01  0.1959E+01
     -7.891  0.7304E+01  0.7304E+01  0.2261E+01  0.2261E+01
     -7.850  0.8293E+01  0.8293E+01  0.2603E+01  0.2603E+01
     -7.809  0.9528E+01  0.9528E+01  0.2996E+01  0.2996E+01
     -7.767  0.1069E+02  0.1069E+02  0.3437E+01  0.3437E+01
     -7.726  0.1140E+02  0.1140E+02  0.3908E+01  0.3908E+01
     -7.685  0.1137E+02  0.1137E+02  0.4377E+01  0.4377E+01
     -7.644  0.1052E+02  0.1052E+02  0.4811E+01  0.4811E+01
     -7.602  0.8974E+01  0.8973E+01  0.5181E+01  0.5181E+01
     -7.561  0.7052E+01  0.7051E+01  0.5472E+01  0.5472E+01
     -7.520  0.5097E+01  0.5097E+01  0.5682E+01  0.5682E+01
     -7.479  0.3388E+01  0.3387E+01  0.5822E+01  0.5822E+01
     -7.437  0.2069E+01  0.2069E+01  0.5907E+01  0.5907E+01
     -7.396  0.1162E+01  0.1162E+01  0.5955E+01  0.5955E+01
     -7.355  0.5995E+00  0.5995E+00  0.5980E+01  0.5980E+01
     -7.314  0.2847E+00  0.2847E+00  0.5992E+01  0.5992E+01
     -7.272  0.1258E+00  0.1257E+00  0.5997E+01  0.5997E+01
     -7.231  0.5585E-01  0.5584E-01  0.5999E+01  0.5999E+01
     -7.190  0.3678E-01  0.3678E-01  0.6001E+01  0.6001E+01
     -7.149  0.5649E-01  0.5650E-01  0.6003E+01  0.6003E+01
     -7.107  0.1275E+00  0.1275E+00  0.6008E+01  0.6008E+01
     -7.066  0.2883E+00  0.2883E+00  0.6020E+01  0.6020E+01
     -7.025  0.6062E+00  0.6063E+00  0.6045E+01  0.6045E+01
     -6.983  0.1173E+01  0.1173E+01  0.6094E+01  0.6094E+01
     -6.942  0.2087E+01  0.2087E+01  0.6180E+01  0.6180E+01
     -6.901  0.3411E+01  0.3411E+01  0.6320E+01  0.6321E+01
     -6.860  0.5123E+01  0.5123E+01  0.6532E+01  0.6532E+01
     -6.818  0.7071E+01  0.7071E+01  0.6824E+01  0.6824E+01
     -6.777  0.8969E+01  0.8969E+01  0.7194E+01  0.7194E+01
     -6.736  0.1045E+02  0.1045E+02  0.7625E+01  0.7625E+01
     -6.695  0.1120E+02  0.1120E+02  0.8087E+01  0.8087E+01
     -6.653  0.1102E+02  0.1102E+02  0.8542E+01  0.8542E+01
     -6.612  0.9970E+01  0.9970E+01  0.8953E+01  0.8953E+01
     -6.571  0.8287E+01  0.8287E+01  0.9295E+01  0.9295E+01
     -6.530  0.6330E+01  0.6330E+01  0.9556E+01  0.9556E+01
     -6.488  0.4443E+01  0.4443E+01  0.9740E+01  0.9740E+01
     -6.447  0.2866E+01  0.2866E+01  0.9858E+01  0.9858E+01
     -6.406  0.1699E+01  0.1699E+01  0.9928E+01  0.9928E+01
     -6.365  0.9255E+00  0.9254E+00  0.9966E+01  0.9966E+01
     -6.323  0.4633E+00  0.4632E+00  0.9985E+01  0.9985E+01
     -6.282  0.2131E+00  0.2131E+00  0.9994E+01  0.9994E+01
     -6.241  0.9008E-01  0.9007E-01  0.9998E+01  0.9998E+01
     -6.200  0.3499E-01  0.3498E-01  0.9999E+01  0.9999E+01
     -6.158  0.1249E-01  0.1249E-01  0.1000E+02  0.1000E+02
     -6.117  0.4097E-02  0.4096E-02  0.1000E+02  0.1000E+02
     -6.076  0.1237E-02  0.1237E-02  0.1000E+02  0.1000E+02
     -6.034  0.3536E-03  0.3536E-03  0.1000E+02  0.1000E+02
     -5.993  0.1385E-03  0.1385E-03  0.1000E+02  0.1000E+02
     -5.952  0.2292E-03  0.2292E-03  0.1000E+02  0.1000E+02
     -5.911  0.7821E-03  0.7822E-03  0.1000E+02  0.1000E+02
     -5.869  0.2663E-02  0.2663E-02  0.1000E+02  0.1000E+02
     -5.828  0.8372E-02  0.8373E-02  0.1000E+02  0.1000E+02
     -5.787  0.2420E-01  0.2420E-01  0.1000E+02  0.1000E+02
     -5.746  0.6426E-01  0.6426E-01  0.1000E+02  0.1000E+02
     -5.704  0.1568E+00  0.1568E+00  0.1001E+02  0.1001E+02
     -5.663  0.3517E+00  0.3517E+00  0.1003E+02  0.1003E+02
     -5.622  0.7247E+00  0.7248E+00  0.1006E+02  0.1006E+02
     -5.581  0.1372E+01  0.1373E+01  0.1011E+02  0.1011E+02
     -5.539  0.2388E+01  0.2388E+01  0.1021E+02  0.1021E+02
     -5.498  0.3819E+01  0.3820E+01  0.1037E+02  0.1037E+02
     -5.457  0.5613E+01  0.5613E+01  0.1060E+02  0.1060E+02
     -5.416  0.7580E+01  0.7580E+01  0.1091E+02  0.1091E+02
     -5.374  0.9407E+01  0.9407E+01  0.1130E+02  0.1130E+02
     -5.333  0.1073E+02  0.1073E+02  0.1174E+02  0.1174E+02
     -5.292  0.1124E+02  0.1124E+02  0.1221E+02  0.1221E+02
     -5.251  0.1083E+02  0.1083E+02  0.1265E+02  0.1265E+02
     -5.209  0.9582E+01  0.9582E+01  0.1305E+02  0.1305E+02
     -5.168  0.7793E+01  0.7793E+01  0.1337E+02  0.1337E+02
     -5.127  0.5824E+01  0.5824E+01  0.1361E+02  0.1361E+02
     -5.085  0.4000E+01  0.4000E+01  0.1378E+02  0.1378E+02
     -5.044  0.2526E+01  0.2526E+01  0.1388E+02  0.1388E+02
     -5.003  0.1470E+01  0.1470E+01  0.1394E+02  0.1394E+02
     -4.962  0.7967E+00  0.7967E+00  0.1397E+02  0.1397E+02
     -4.920  0.4248E+00  0.4248E+00  0.1399E+02  0.1399E+02
     -4.879  0.2735E+00  0.2735E+00  0.1400E+02  0.1400E+02
     -4.838  0.2929E+00  0.2929E+00  0.1401E+02  0.1401E+02
     -4.797  0.4723E+00  0.4723E+00  0.1403E+02  0.1403E+02
     -4.755  0.8309E+00  0.8310E+00  0.1407E+02  0.1407E+02
     -4.714  0.1396E+01  0.1396E+01  0.1413E+02  0.1413E+02
     -4.673  0.2171E+01  0.2171E+01  0.1422E+02  0.1422E+02
     -4.632  0.3107E+01  0.3107E+01  0.1434E+02  0.1434E+02
     -4.590  0.4088E+01  0.4088E+01  0.1451E+02  0.1451E+02
     -4.549  0.4942E+01  0.4942E+01  0.1472E+02  0.1472E+02
     -4.508  0.5491E+01  0.5491E+01  0.1494E+02  0.1494E+02
     -4.467  0.5607E+01  0.5607E+01  0.1517E+02  0.1517E+02
     -4.425  0.5261E+01  0.5260E+01  0.1539E+02  0.1539E+02
     -4.384  0.4536E+01  0.4536E+01  0.1558E+02  0.1558E+02
     -4.343  0.3594E+01  0.3594E+01  0.1573E+02  0.1573E+02
     -4.302  0.2617E+01  0.2617E+01  0.1583E+02  0.1583E+02
     -4.260  0.1751E+01  0.1751E+01  0.1591E+02  0.1591E+02
     -4.219  0.1077E+01  0.1077E+01  0.1595E+02  0.1595E+02
     -4.178  0.6083E+00  0.6083E+00  0.1598E+02  0.1598E+02
     -4.136  0.3158E+00  0.3158E+00  0.1599E+02  0.1599E+02
     -4.095  0.1507E+00  0.1507E+00  0.1600E+02  0.1600E+02
     -4.054  0.6608E-01  0.6607E-01  0.1600E+02  0.1600E+02
     -4.013  0.2662E-01  0.2662E-01  0.1600E+02  0.1600E+02
     -3.971  0.9857E-02  0.9857E-02  0.1600E+02  0.1600E+02
     -3.930  0.3354E-02  0.3354E-02  0.1600E+02  0.1600E+02
     -3.889  0.1049E-02  0.1048E-02  0.1600E+02  0.1600E+02
     -3.848  0.3012E-03  0.3012E-03  0.1600E+02  0.1600E+02
     -3.806  0.7953E-04  0.7952E-04  0.1600E+02  0.1600E+02
     -3.765  0.1929E-04  0.1929E-04  0.1600E+02  0.1600E+02
     -3.724  0.4301E-05  0.4300E-05  0.1600E+02  0.1600E+02
     -3.683  0.8809E-06  0.8808E-06  0.1600E+02  0.1600E+02
     -3.641  0.1658E-06  0.1658E-06  0.1600E+02  0.1600E+02
     -3.600  0.2868E-07  0.2867E-07  0.1600E+02  0.1600E+02
     -3.559  0.4557E-08  0.4556E-08  0.1600E+02  0.1600E+02
     -3.518  0.6654E-09  0.6653E-09  0.1600E+02  0.1600E+02
     -3.476  0.8928E-10  0.8927E-10  0.1600E+02  0.1600E+02
     -3.435  0.1101E-10  0.1101E-10  0.1600E+02  0.1600E+02
     -3.394  0.1248E-11  0.1248E-11  0.1600E+02  0.1600E+02
     -3.353  0.1292E-12  0.1292E-12  0.1600E+02  0.1600E+02
     -3.311  0.1076E-13  0.1076E-13  0.1600E+02  0.1600E+02
     -3.270  0.0000E+00  0.0000E+00  0.1600E+02  0.1600E+02
     -3.229  0.0000E+00  0.0000E+00  0.1600E+02  0.1600E+02
     -3.187  0.0000E+00  0.0000E+00  0.1600E+02  0.1600E+02
     -3.146  0.0000E+00  0.0000E+00  0.1600E+02  0.1600E+02
     -3.105  0.0000E+00  0.0000E+00  0.1600E+02  0.1600E+02
     -3.064  0.0000E+00  0.0000E+00  0.1600E+02  0.1600E+02
     -3.022  0.0000E+00  0.0000E+00  0.1600E+02  0.1600E+02
     -2.981  0.0000E+00  0.0000E+00  0.1600E+02  0.1600E+02
     -2.940  0.0000E+00  0.0000E+00  0.1600E+02  0.1600E+02
     -2.899  0.0000E+00  0.0000E+00  0.1600E+02  0.1600E+02
     -2.857  0.0000E+00  0.0000E+00  0.1600E+02  0.1600E+02
     -2.816  0.0000E+00  0.0000E+00  0.1600E+02  0.1600E+02
     -2.775  0.0000E+00  0.0000E+00  0.1600E+02  0.1600E+02
     -2.734  0.0000E+00  0.0000E+00  0.1600E+02  0.1600E+02
     -2.692  0.0000E+00  0.0000E+00  0.1600E+02  0.1600E+02
     -2.651  0.0000E+00  0.0000E+00  0.1600E+02  0.1600E+02
     -2.610  0.0000E+00  0.0000E+00  0.1600E+02  0.1600E+02
     -2.569  0.0000E+00  0.0000E+00  0.1600E+02  0.1600E+02
     -2.527  0.0000E+00  0.0000E+00  0.1600E+02  0.1600E+02
     -2.486  0.0000E+00  0.0000E+00  0.1600E+02  0.1600E+02
     -2.445  0.0000E+00  0.0000E+00  0.1600E+02  0.1600E+02
     -2.403  0.0000E+00  0.0000E+00  0.1600E+02  0.1600E+02
     -2.362  0.0000E+00  0.0000E+00  0.1600E+02  0.1600E+02
     -2.321  0.0000E+00  0.0000E+00  0.1600E+02  0.1600E+02
     -2.280  0.0000E+00  0.0000E+00  0.1600E+02  0.1600E+02
     -2.238  0.0000E+00  0.0000E+00  0.1600E+02  0.1600E+02
     -2.197  0.0000E+00  0.0000E+00  0.1600E+02  0.1600E+02
     -2.156  0.0000E+00  0.0000E+00  0.1600E+02  0.1600E+02
     -2.115  0.0000E+00  0.0000E+00  0.1600E+02  0.1600E+02
     -2.073  0.0000E+00  0.0000E+00  0.1600E+02  0.1600E+02
     -2.032  0.0000E+00  0.0000E+00  0.1600E+02  0.1600E+02
     -1.991  0.0000E+00  0.0000E+00  0.1600E+02  0.1600E+02
     -1.950  0.0000E+00  0.0000E+00  0.1600E+02  0.1600E+02
     -1.908  0.0000E+00  0.0000E+00  0.1600E+02  0.1600E+02
     -1.867  0.0000E+00  0.0000E+00  0.1600E+02  0.1600E+02
     -1.826  0.0000E+00  0.0000E+00  0.1600E+02  0.1600E+02
     -1.785  0.0000E+00  0.0000E+00  0.1600E+02  0.1600E+02
     -1.743  0.0000E+00  0.0000E+00  0.1600E+02  0.1600E+02
     -1.702  0.0000E+00  0.0000E+00  0.1600E+02  0.1600E+02
     -1.661  0.0000E+00  0.0000E+00  0.1600E+02  0.1600E+02
     -1.620  0.0000E+00  0.0000E+00  0.1600E+02  0.1600E+02
     -1.578  0.0000E+00  0.0000E+00  0.1600E+02  0.1600E+02
     -1.537  0.0000E+00  0.0000E+00  0.1600E+02  0.1600E+02
     -1.496  0.0000E+00  0.0000E+00  0.1600E+02  0.1600E+02
     -1.454  0.0000E+00  0.0000E+00  0.1600E+02  0.1600E+02
     -1.413  0.0000E+00  0.0000E+00  0.1600E+02  0.1600E+02
     -1.372  0.0000E+00  0.0000E+00  0.1600E+02  0.1600E+02
     -1.331  0.0000E+00  0.0000E+00  0.1600E+02  0.1600E+02
     -1.289  0.1614E-13  0.1614E-13  0.1600E+02  0.1600E+02
     -1.248  0.1238E-12  0.1238E-12  0.1600E+02  0.1600E+02
     -1.207  0.1267E-11  0.1259E-11  0.1600E+02  0.1600E+02
     -1.166  0.1152E-10  0.1143E-10  0.1600E+02  0.1600E+02
     -1.124  0.9609E-10  0.9546E-10  0.1600E+02  0.1600E+02
     -1.083  0.7376E-09  0.7331E-09  0.1600E+02  0.1600E+02
     -1.042  0.5207E-08  0.5177E-08  0.1600E+02  0.1600E+02
     -1.001  0.3381E-07  0.3363E-07  0.1600E+02  0.1600E+02
     -0.959  0.2019E-06  0.2009E-06  0.1600E+02  0.1600E+02
     -0.918  0.1109E-05  0.1104E-05  0.1600E+02  0.1600E+02
     -0.877  0.5603E-05  0.5578E-05  0.1600E+02  0.1600E+02
     -0.836  0.2604E-04  0.2593E-04  0.1600E+02  0.1600E+02
     -0.794  0.1113E-03  0.1109E-03  0.1600E+02  0.1600E+02
     -0.753  0.4376E-03  0.4361E-03  0.1600E+02  0.1600E+02
     -0.712  0.1583E-02  0.1578E-02  0.1600E+02  0.1600E+02
     -0.671  0.5266E-02  0.5251E-02  0.1600E+02  0.1600E+02
     -0.629  0.1612E-01  0.1608E-01  0.1600E+02  0.1600E+02
     -0.588  0.4538E-01  0.4528E-01  0.1600E+02  0.1600E+02
     -0.547  0.1175E+00  0.1173E+00  0.1601E+02  0.1601E+02
     -0.505  0.2801E+00  0.2796E+00  0.1602E+02  0.1602E+02
     -0.464  0.6139E+00  0.6130E+00  0.1604E+02  0.1604E+02
     -0.423  0.1238E+01  0.1236E+01  0.1610E+02  0.1610E+02
     -0.382  0.2297E+01  0.2294E+01  0.1619E+02  0.1619E+02
     -0.340  0.3919E+01  0.3915E+01  0.1635E+02  0.1635E+02
     -0.299  0.6152E+01  0.6148E+01  0.1661E+02  0.1661E+02
     -0.258  0.8886E+01  0.8881E+01  0.1697E+02  0.1697E+02
     -0.217  0.1181E+02  0.1180E+02  0.1746E+02  0.1746E+02
     -0.175  0.1443E+02  0.1443E+02  0.1806E+02  0.1805E+02
     -0.134  0.1624E+02  0.1624E+02  0.1873E+02  0.1872E+02
     -0.093  0.1684E+02  0.1684E+02  0.1942E+02  0.1942E+02
     -0.052  0.1612E+02  0.1613E+02  0.2009E+02  0.2008E+02
     -0.010  0.1432E+02  0.1432E+02  0.2068E+02  0.2068E+02
      0.031  0.1192E+02  0.1193E+02  0.2117E+02  0.2117E+02
      0.072  0.9519E+01  0.9522E+01  0.2156E+02  0.2156E+02
      0.113  0.7589E+01  0.7589E+01  0.2187E+02  0.2187E+02
      0.155  0.6376E+01  0.6375E+01  0.2214E+02  0.2214E+02
      0.196  0.5858E+01  0.5856E+01  0.2238E+02  0.2238E+02
      0.237  0.5807E+01  0.5805E+01  0.2262E+02  0.2262E+02
      0.278  0.5904E+01  0.5902E+01  0.2286E+02  0.2286E+02
      0.320  0.5857E+01  0.5857E+01  0.2310E+02  0.2310E+02
      0.361  0.5497E+01  0.5499E+01  0.2333E+02  0.2333E+02
      0.402  0.4804E+01  0.4807E+01  0.2353E+02  0.2353E+02
      0.444  0.3880E+01  0.3883E+01  0.2369E+02  0.2369E+02
      0.485  0.2887E+01  0.2890E+01  0.2381E+02  0.2381E+02
      0.526  0.1976E+01  0.1979E+01  0.2389E+02  0.2389E+02
      0.567  0.1243E+01  0.1246E+01  0.2394E+02  0.2394E+02
      0.609  0.7192E+00  0.7208E+00  0.2397E+02  0.2397E+02
      0.650  0.3823E+00  0.3833E+00  0.2399E+02  0.2399E+02
      0.691  0.1867E+00  0.1873E+00  0.2399E+02  0.2399E+02
      0.732  0.8383E-01  0.8409E-01  0.2400E+02  0.2400E+02
      0.774  0.3458E-01  0.3470E-01  0.2400E+02  0.2400E+02
      0.815  0.1311E-01  0.1316E-01  0.2400E+02  0.2400E+02
      0.856  0.4566E-02  0.4585E-02  0.2400E+02  0.2400E+02
      0.897  0.1461E-02  0.1468E-02  0.2400E+02  0.2400E+02
      0.939  0.4299E-03  0.4319E-03  0.2400E+02  0.2400E+02
      0.980  0.1162E-03  0.1168E-03  0.2400E+02  0.2400E+02
      1.021  0.2886E-04  0.2901E-04  0.2400E+02  0.2400E+02
      1.062  0.6586E-05  0.6624E-05  0.2400E+02  0.2400E+02
      1.104  0.1381E-05  0.1390E-05  0.2400E+02  0.2400E+02
      1.145  0.2661E-06  0.2678E-06  0.2400E+02  0.2400E+02
      1.186  0.4713E-07  0.4744E-07  0.2400E+02  0.2400E+02
      1.227  0.7668E-08  0.7722E-08  0.2400E+02  0.2400E+02
      1.269  0.1146E-08  0.1155E-08  0.2400E+02  0.2400E+02
      1.310  0.1575E-09  0.1587E-09  0.2400E+02  0.2400E+02
      1.351  0.1987E-10  0.2004E-10  0.2400E+02  0.2400E+02
      1.393  0.2309E-11  0.2325E-11  0.2400E+02  0.2400E+02
      1.434  0.2422E-12  0.2475E-12  0.2400E+02  0.2400E+02
      1.475  0.2691E-13  0.2691E-13  0.2400E+02  0.2400E+02
      1.516  0.0000E+00  0.0000E+00  0.2400E+02  0.2400E+02
      1.558  0.0000E+00  0.0000E+00  0.2400E+02  0.2400E+02
      1.599  0.0000E+00  0.0000E+00  0.2400E+02  0.2400E+02
      1.640  0.0000E+00  0.0000E+00  0.2400E+02  0.2400E+02
      1.681  0.0000E+00  0.0000E+00  0.2400E+02  0.2400E+02
      1.723  0.0000E+00  0.0000E+00  0.2400E+02  0.2400E+02
      1.764  0.0000E+00  0.0000E+00  0.2400E+02  0.2400E+02
      1.805  0.0000E+00  0.0000E+00  0.2400E+02  0.2400E+02
      1.846  0.0000E+00  0.0000E+00  0.2400E+02  0.2400E+02
      1.888  0.0000E+00  0.0000E+00  0.2400E+02  0.2400E+02
      1.929  0.0000E+00  0.0000E+00  0.2400E+02  0.2400E+02
      1.970  0.0000E+00  0.0000E+00  0.2400E+02  0.2400E+02
      2.011  0.0000E+00  0.0000E+00  0.2400E+02  0.2400E+02
      2.053  0.0000E+00  0.0000E+00  0.2400E+02  0.2400E+02
      2.094  0.0000E+00  0.0000E+00  0.2400E+02  0.2400E+02
      2.135  0.0000E+00  0.0000E+00  0.2400E+02  0.2400E+02
      2.176  0.0000E+00  0.0000E+00  0.2400E+02  0.2400E+02
      2.218  0.0000E+00  0.0000E+00  0.2400E+02  0.2400E+02
      2.259  0.0000E+00  0.0000E+00  0.2400E+02  0.2400E+02
      2.300  0.0000E+00  0.0000E+00  0.2400E+02  0.2400E+02
