    8    8    1    2
  0.5175000E+03  0.1500000E-08  0.1500000E-08  0.1840000E-08  0.5000000E-15
  1.000000000000000E-004
  CAR 
 unknown system                          
      8      1     12
 
  0.0000000E+00  0.0000000E+00  0.0000000E+00  0.1000000E+01
    1       -8.078052     -8.078057   1.000000   1.000000
    2       -7.719117     -7.719122   1.000000   1.000000
    3       -7.719117     -7.719122   1.000000   1.000000
    4       -6.702366     -6.702370   0.500000   0.500000
    5       -6.702366     -6.702370   0.500000   0.500000
    6       -5.310153     -5.310156   0.000000   0.000000
    7       -5.310153     -5.310156   0.000000   0.000000
    8       -4.497659     -4.497662   0.000000   0.000000
    9       -0.139160     -0.138983   0.000000   0.000000
   10       -0.106957     -0.106944   0.000000   0.000000
   11       -0.106957     -0.106944   0.000000   0.000000
   12        0.300106      0.300262   0.000000   0.000000
