       N       E                     dE             d eps       ncg     rms          rms(c)
DAV:   1     0.166486484199E+02    0.16649E+02   -0.76549E+02    48   0.175E+02
DAV:   2    -0.545932244698E+01   -0.22108E+02   -0.22024E+02    92   0.498E+01
DAV:   3    -0.723870614216E+01   -0.17794E+01   -0.15949E+01    60   0.180E+01
DAV:   4    -0.731575967127E+01   -0.77054E-01   -0.74501E-01    52   0.345E+00
DAV:   5    -0.731657986619E+01   -0.82019E-03   -0.81991E-03    80   0.340E-01    0.136E+00
DAV:   6    -0.733831275702E+01   -0.21733E-01   -0.10796E-02    48   0.484E-01    0.826E-01
DAV:   7    -0.736881189013E+01   -0.30499E-01   -0.23977E-02    48   0.737E-01    0.650E-02
DAV:   8    -0.737004171954E+01   -0.12298E-02   -0.55419E-04    56   0.134E-01    0.152E-02
DAV:   9    -0.737008507707E+01   -0.43358E-04   -0.26525E-05    56   0.296E-02    0.223E-03
DAV:  10    -0.737008775484E+01   -0.26778E-05   -0.10495E-06    32   0.491E-03    0.145E-03
DAV:  11    -0.737008822896E+01   -0.47412E-06   -0.34739E-07    40   0.273E-03
   1 F= -.73700882E+01 E0= -.72572503E+01  d E =-.225676E+00  mag=    -0.0000
