 vasp.5.4.4.18Apr17-6-g9f103f2a35 (build Aug 24 2024 05:40:03) complex          
  
 executed on           IFC22_IMPI date 2024.11.22  21:45:35
 running on    4 total cores
 distrk:  each k-point on    4 cores,    1 groups
 distr:  one band on NCORES_PER_BAND=   1 cores,    4 groups


--------------------------------------------------------------------------------------------------------


 INCAR:
 POTCAR:    PAW_PBE H 15Jun2001                   
 POTCAR:    PAW_PBE H 15Jun2001                   
   VRHFIN =H: ultrasoft test                                                    
   LEXCH  = PE                                                                  
   EATOM  =    12.4884 eV,    0.9179 Ry                                         
                                                                                
   TITEL  = PAW_PBE H 15Jun2001                                                 
   LULTRA =        F    use ultrasoft PP ?                                      
   IUNSCR =        0    unscreen: 0-lin 1-nonlin 2-no                           
   RPACOR =    0.000    partial core radius                                     
   POMASS =    1.000; ZVAL   =    1.000    mass and valenz                      
   RCORE  =    1.100    outmost cutoff radius                                   
   RWIGS  =    0.700; RWIGS  =    0.370    wigner-seitz radius (au A)           
   ENMAX  =  250.000; ENMIN  =  200.000 eV                                      
   RCLOC  =    0.701    cutoff for local pot                                    
   LCOR   =        T    correct aug charges                                     
   LPAW   =        T    paw PP                                                  
   EAUG   =  400.000                                                            
   RMAX   =    1.123    core radius for proj-oper                               
   RAUG   =    1.200    factor for augmentation sphere                          
   RDEP   =    1.112    radius for radial grids                                 
   RDEPT  =    0.926    core radius for aug-charge                              
                                                                                
   Atomic configuration                                                         
    2 entries                                                                   
     n  l   j            E        occ.                                          
     1  0  0.50        -6.4927   1.0000                                         
     2  1  0.50        -3.4015   0.0000                                         
   Description                                                                  
     l       E           TYP  RCUT    TYP  RCUT                                 
     0     -6.4927494     23  1.100                                             
     0      6.8029130     23  1.100                                             
     1     -4.0817478     23  1.100                                             
  local pseudopotential read in
  atomic valenz-charges read in
  non local Contribution for L=           0  read in
    real space projection operators read in
  non local Contribution for L=           0  read in
    real space projection operators read in
  non local Contribution for L=           1  read in
    real space projection operators read in
    PAW grid and wavefunctions read in
 
   number of l-projection  operators is LMAX  =           3
   number of lm-projection operators is LMMAX =           5
 
  PAW_PBE H 15Jun2001                   :
 energy of atom  1       EATOM=  -12.4884
 kinetic energy error for atom=    0.0426 (will be added to EATOM!!)
 
 
 POSCAR: H8                                      
  positions in direct lattice
  No initial velocities read in
 exchange correlation table for  LEXCH =        8
   RHO(1)=    0.500       N(1)  =     2000
   RHO(2)=  100.500       N(2)  =     4000
 


--------------------------------------------------------------------------------------------------------


 ion  position               nearest neighbor table
   1  0.000  0.000  0.000-
   2  0.000  0.000  0.125-
   3  0.000  0.000  0.250-
   4  0.000  0.000  0.375-
   5  0.000  0.000  0.500-
   6  0.000  0.000  0.625-
   7  0.000  0.000  0.750-
   8  0.000  0.000  0.875-
 
  LATTYP: Found a simple tetragonal cell.
 ALAT       =    15.0000000000
 C/A-ratio  =     1.2266666667
  
  Lattice vectors:
  
 A1 = (  15.0000000000,   0.0000000000,   0.0000000000)
 A2 = (   0.0000000000,  15.0000000000,   0.0000000000)
 A3 = (   0.0000000000,   0.0000000000,  18.4000000000)


Analysis of symmetry for initial positions (statically):
=====================================================================
 Subroutine PRICEL returns following result:
 
  LATTYP: Found a simple tetragonal cell.
 ALAT       =    15.0000000000
 C/A-ratio  =     0.1533333333
  
  Lattice vectors:
  
 A1 = (  15.0000000000,   0.0000000000,   0.0000000000)
 A2 = (   0.0000000000,  15.0000000000,   0.0000000000)
 A3 = (   0.0000000000,   0.0000000000,   2.3000000000)
 
   8 primitive cells build up your supercell.
 

 Routine SETGRP: Setting up the symmetry group for a 
 simple tetragonal supercell.


 Subroutine GETGRP returns: Found 16 space group operations
 (whereof 16 operations were pure point group operations)
 out of a pool of 16 trial point group operations.


The static configuration has the point symmetry D_4h.


Analysis of symmetry for dynamics (positions and initial velocities):
=====================================================================
 Subroutine PRICEL returns following result:
 
  LATTYP: Found a simple tetragonal cell.
 ALAT       =    15.0000000000
 C/A-ratio  =     0.1533333333
  
  Lattice vectors:
  
 A1 = (  15.0000000000,   0.0000000000,   0.0000000000)
 A2 = (   0.0000000000,  15.0000000000,   0.0000000000)
 A3 = (   0.0000000000,   0.0000000000,   2.3000000000)
 
   8 primitive cells build up your supercell.
 

 Routine SETGRP: Setting up the symmetry group for a 
 simple tetragonal supercell.


 Subroutine GETGRP returns: Found 16 space group operations
 (whereof 16 operations were pure point group operations)
 out of a pool of 16 trial point group operations.


The dynamic configuration has the point symmetry D_4h.


Analysis of structural, dynamic, and magnetic symmetry:
=====================================================================
 Subroutine PRICEL returns following result:
 
  LATTYP: Found a simple tetragonal cell.
 ALAT       =    15.0000000000
 C/A-ratio  =     0.1533333333
  
  Lattice vectors:
  
 A1 = (  15.0000000000,   0.0000000000,   0.0000000000)
 A2 = (   0.0000000000,  15.0000000000,   0.0000000000)
 A3 = (   0.0000000000,   0.0000000000,   2.3000000000)
 
   8 primitive cells build up your supercell.
 

 Routine SETGRP: Setting up the symmetry group for a 
 simple tetragonal supercell.


 Subroutine GETGRP returns: Found 16 space group operations
 (whereof 16 operations were pure point group operations)
 out of a pool of 16 trial point group operations.


The magnetic configuration has the point symmetry D_4h.


 Subroutine INISYM returns: Found 16 space group operations
 (whereof 16 operations are pure point group operations),
 and found     8 'primitive' translations

 
 
 KPOINTS: Automatic kpoint scheme                 

Automatic generation of k-mesh.
Space group operators:
 irot       det(A)        alpha          n_x          n_y          n_z        tau_x        tau_y        tau_z
    1     1.000000     0.000000     1.000000     0.000000     0.000000     0.000000     0.000000     0.000000
    2    -1.000000     0.000000     1.000000     0.000000     0.000000     0.000000     0.000000     0.000000
    3     1.000000    90.000000     0.000000     0.000000    -1.000000     0.000000     0.000000     0.000000
    4    -1.000000    90.000000     0.000000     0.000000    -1.000000     0.000000     0.000000     0.000000
    5     1.000000   180.000000    -0.000000    -0.000000     1.000000     0.000000     0.000000     0.000000
    6    -1.000000   180.000000    -0.000000    -0.000000     1.000000     0.000000     0.000000     0.000000
    7     1.000000    90.000000    -0.000000    -0.000000     1.000000     0.000000     0.000000     0.000000
    8    -1.000000    90.000000    -0.000000    -0.000000     1.000000     0.000000     0.000000     0.000000
    9     1.000000   180.000000     0.000000     1.000000     0.000000     0.000000     0.000000     0.000000
   10    -1.000000   180.000000     0.000000     1.000000     0.000000     0.000000     0.000000     0.000000
   11     1.000000   180.000000     0.707107     0.707107     0.000000     0.000000     0.000000     0.000000
   12    -1.000000   180.000000     0.707107     0.707107     0.000000     0.000000     0.000000     0.000000
   13     1.000000   180.000000     1.000000    -0.000000     0.000000     0.000000     0.000000     0.000000
   14    -1.000000   180.000000     1.000000    -0.000000     0.000000     0.000000     0.000000     0.000000
   15     1.000000   180.000000     0.707107    -0.707107     0.000000     0.000000     0.000000     0.000000
   16    -1.000000   180.000000     0.707107    -0.707107     0.000000     0.000000     0.000000     0.000000
 
 Subroutine IBZKPT returns following result:
 ===========================================
 
 Found      1 irreducible k-points:
 
 Following reciprocal coordinates:
            Coordinates               Weight
  0.000000  0.000000  0.000000      1.000000
 
 Following cartesian coordinates:
            Coordinates               Weight
  0.000000  0.000000  0.000000      1.000000
 


--------------------------------------------------------------------------------------------------------




 Dimension of arrays:
   k-points           NKPTS =      1   k-points in BZ     NKDIM =      1   number of bands    NBANDS=     12
   number of dos      NEDOS =    301   number of ions     NIONS =      8
   non local maximal  LDIM  =      3   non local SUM 2l+1 LMDIM =      5
   total plane-waves  NPLWV = 327680
   max r-space proj   IRMAX =      1   max aug-charges    IRDMAX=    584
   dimension x,y,z NGX =    64 NGY =   64 NGZ =   80
   dimension x,y,z NGXF=   128 NGYF=  128 NGZF=  160
   support grid    NGXF=   128 NGYF=  128 NGZF=  160
   ions per type =               8
   NGX,Y,Z   is equivalent  to a cutoff of   7.09,  7.09,  7.23 a.u.
   NGXF,Y,Z  is equivalent  to a cutoff of  14.19, 14.19, 14.46 a.u.

 SYSTEM =  unknown system                          
 POSCAR =  H8                                      

 Startparameter for this run:
   NWRITE =      2    write-flag & timer
   PREC   = normal    normal or accurate (medium, high low for compatibility)
   ISTART =      0    job   : 0-new  1-cont  2-samecut
   ICHARG =      2    charge: 1-file 2-atom 10-const
   ISPIN  =      2    spin polarized calculation?
   LNONCOLLINEAR =      F non collinear calculations
   LSORBIT =      F    spin-orbit coupling
   INIWAV =      1    electr: 0-lowe 1-rand  2-diag
   LASPH  =      F    aspherical Exc in radial PAW
   METAGGA=      F    non-selfconsistent MetaGGA calc.

 Electronic Relaxation 1
   ENCUT  =  300.0 eV  22.05 Ry    4.70 a.u.  21.18 21.18 25.99*2*pi/ulx,y,z
   ENINI  =  300.0     initial cutoff
   ENAUG  =  400.0 eV  augmentation charge cutoff
   NELM   =    100;   NELMIN=  2; NELMDL= -5     # of ELM steps 
   EDIFF  = 0.1E-05   stopping-criterion for ELM
   LREAL  =      F    real-space projection
   NLSPLINE    = F    spline interpolate recip. space projectors
   LCOMPAT=      F    compatible to vasp.4.4
   GGA_COMPAT  = T    GGA compatible to vasp.4.4-vasp.4.6
   LMAXPAW     = -100 max onsite density
   LMAXMIX     =    2 max onsite mixed and CHGCAR
   VOSKOWN=      0    Vosko Wilk Nusair interpolation
   ROPT   =    0.00000
 Ionic relaxation
   EDIFFG = 0.1E-04   stopping-criterion for IOM
   NSW    =      0    number of steps for IOM
   NBLOCK =      1;   KBLOCK =      1    inner block; outer block 
   IBRION =     -1    ionic relax: 0-MD 1-quasi-New 2-CG
   NFREE  =      0    steps in history (QN), initial steepest desc. (CG)
   ISIF   =      2    stress and relaxation
   IWAVPR =     10    prediction:  0-non 1-charg 2-wave 3-comb
   ISYM   =      2    0-nonsym 1-usesym 2-fastsym
   LCORR  =      T    Harris-Foulkes like correction to forces

   POTIM  = 0.5000    time-step for ionic-motion
   TEIN   =    0.0    initial temperature
   TEBEG  =    0.0;   TEEND  =   0.0 temperature during run
   SMASS  =  -3.00    Nose mass-parameter (am)
   estimated Nose-frequenzy (Omega)   =  0.10E-29 period in steps =****** mass=  -0.514E-26a.u.
   SCALEE = 1.0000    scale energy and forces
   NPACO  =    256;   APACO  = 16.0  distance and # of slots for P.C.
   PSTRESS=    0.0 pullay stress

  Mass of Ions in am
   POMASS =   1.00
  Ionic Valenz
   ZVAL   =   1.00
  Atomic Wigner-Seitz radii
   RWIGS  =  -1.00
  virtual crystal weights 
   VCA    =   1.00
   NELECT =       8.0000    total number of electrons
   NUPDOWN=       0.0000    fix difference up-down

 DOS related values:
   EMIN   =  10.00;   EMAX   =-10.00  energy-range for DOS
   EFERMI =   0.00
   ISMEAR =     0;   SIGMA  =   0.20  broadening in eV -4-tet -1-fermi 0-gaus

 Electronic relaxation 2 (details)
   IALGO  =     38    algorithm
   LDIAG  =      T    sub-space diagonalisation (order eigenvalues)
   LSUBROT=      F    optimize rotation matrix (better conditioning)
   TURBO    =      0    0=normal 1=particle mesh
   IRESTART =      0    0=no restart 2=restart with 2 vectors
   NREBOOT  =      0    no. of reboots
   NMIN     =      0    reboot dimension
   EREF     =   0.00    reference energy to select bands
   IMIX   =      4    mixing-type and parameters
     AMIX     =   0.40;   BMIX     =  1.00
     AMIX_MAG =   1.60;   BMIX_MAG =  1.00
     AMIN     =   0.10
     WC   =   100.;   INIMIX=   1;  MIXPRE=   1;  MAXMIX= -45

 Intra band minimization:
   WEIMIN = 0.0000     energy-eigenvalue tresh-hold
   EBREAK =  0.21E-07  absolut break condition
   DEPER  =   0.30     relativ break condition  

   TIME   =   0.40     timestep for ELM

  volume/ion in A,a.u.               =     517.50      3492.26
  Fermi-wavevector in a.u.,A,eV,Ry     =   0.203910  0.385334  0.565719  0.041579
  Thomas-Fermi vector in A             =   0.962882
 
 Write flags
   LWAVE        =      F    write WAVECAR
   LDOWNSAMPLE  =      F    k-point downsampling of WAVECAR
   LCHARG       =      F    write CHGCAR
   LVTOT        =      F    write LOCPOT, total local potential
   LVHAR        =      F    write LOCPOT, Hartree potential only
   LELF         =      F    write electronic localiz. function (ELF)
   LORBIT       =      0    0 simple, 1 ext, 2 COOP (PROOUT), +10 PAW based schemes


 Dipole corrections
   LMONO  =      F    monopole corrections only (constant potential shift)
   LDIPOL =      F    correct potential (dipole corrections)
   IDIPOL =      0    1-x, 2-y, 3-z, 4-all directions 
   EPSILON=  1.0000000 bulk dielectric constant

 Exchange correlation treatment:
   GGA     =    --    GGA type
   LEXCH   =     8    internal setting for exchange type
   VOSKOWN=      0    Vosko Wilk Nusair interpolation
   LHFCALC =     F    Hartree Fock is set to
   LHFONE  =     F    Hartree Fock one center treatment
   AEXX    =    0.0000 exact exchange contribution

 Linear response parameters
   LEPSILON=     F    determine dielectric tensor
   LRPA    =     F    only Hartree local field effects (RPA)
   LNABLA  =     F    use nabla operator in PAW spheres
   LVEL    =     F    velocity operator in full k-point grid
   LINTERFAST=   F  fast interpolation
   KINTER  =     0    interpolate to denser k-point grid
   CSHIFT  =0.1000    complex shift for real part using Kramers Kronig
   OMEGAMAX=  -1.0    maximum frequency
   DEG_THRESHOLD= 0.2000000E-02 threshold for treating states as degnerate
   RTIME   =   -0.100 relaxation time in fs
  (WPLASMAI=    0.000 imaginary part of plasma frequency in eV, 0.658/RTIME)
   DFIELD  = 0.0000000 0.0000000 0.0000000 field for delta impulse in time
 
 Orbital magnetization related:
   ORBITALMAG=     F  switch on orbital magnetization
   LCHIMAG   =     F  perturbation theory with respect to B field
   DQ        =  0.001000  dq finite difference perturbation B field
   LLRAUG    =     F  two centre corrections for induced B field



--------------------------------------------------------------------------------------------------------


 Static calculation
 charge density and potential will be updated during run
 spin polarized calculation
 Variant of blocked Davidson
 Davidson routine will perform the subspace rotation
 perform sub-space diagonalisation
    after iterative eigenvector-optimisation
 modified Broyden-mixing scheme, WC =      100.0
 initial mixing is a Kerker type mixing with AMIX =  0.4000 and BMIX =      1.0000
 Hartree-type preconditioning will be used
 using additional bands            8
 reciprocal scheme for non local part
 calculate Harris-corrections to forces 
   (improved forces if not selfconsistent)
 use gradient corrections 
 use of overlap-Matrix (Vanderbilt PP)
 Gauss-broadening in eV      SIGMA  =   0.20


--------------------------------------------------------------------------------------------------------


  energy-cutoff  :      300.00
  volume of cell :     4140.00
      direct lattice vectors                 reciprocal lattice vectors
    15.000000000  0.000000000  0.000000000     0.066666667 -0.000000000  0.000000000
     0.000000000 15.000000000  0.000000000     0.000000000  0.066666667  0.000000000
     0.000000000  0.000000000 18.400000000    -0.000000000 -0.000000000  0.054347826

  length of vectors
    15.000000000 15.000000000 18.400000000     0.066666667  0.066666667  0.054347826


 
 k-points in units of 2pi/SCALE and weight: Automatic kpoint scheme                 
   0.00000000  0.00000000  0.00000000       1.000
 
 k-points in reciprocal lattice and weights: Automatic kpoint scheme                 
   0.00000000  0.00000000  0.00000000       1.000
 
 position of ions in fractional coordinates (direct lattice) 
   0.00000000  0.00000000  0.00000000
   0.00000000  0.00000000  0.12500000
   0.00000000  0.00000000  0.25000000
   0.00000000  0.00000000  0.37500000
   0.00000000  0.00000000  0.50000000
   0.00000000  0.00000000  0.62500000
   0.00000000  0.00000000  0.75000000
   0.00000000  0.00000000  0.87500000
 
 position of ions in cartesian coordinates  (Angst):
   0.00000000  0.00000000  0.00000000
   0.00000000  0.00000000  2.30000000
   0.00000000  0.00000000  4.60000000
   0.00000000  0.00000000  6.90000000
   0.00000000  0.00000000  9.20000000
   0.00000000  0.00000000 11.50000000
   0.00000000  0.00000000 13.80000000
   0.00000000  0.00000000 16.10000000
 


--------------------------------------------------------------------------------------------------------


 k-point  1 :   0.0000 0.0000 0.0000  plane waves:   48807

 maximum and minimum number of plane-waves per node :     48807    48807

 maximum number of plane-waves:     48807
 maximum index in each direction: 
   IXMAX=   21   IYMAX=   21   IZMAX=   25
   IXMIN=  -21   IYMIN=  -21   IZMIN=  -25


 serial   3D FFT for wavefunctions
 parallel 3D FFT for charge:
    minimum data exchange during FFTs selected (reduces bandwidth)


 total amount of memory used by VASP MPI-rank0   140477. kBytes
=======================================================================

   base      :      30000. kBytes
   nonl-proj :       8199. kBytes
   fftplans  :      23580. kBytes
   grid      :      73990. kBytes
   one-center:         19. kBytes
   wavefun   :       4689. kBytes
 
     INWAV:  cpu time    0.0000: real time    0.0000
 Broyden mixing: mesh for mixing (old mesh)
   NGX = 43   NGY = 43   NGZ = 51
  (NGX  =128   NGY  =128   NGZ  =160)
  gives a total of  94299 points

 initial charge density was supplied:
 charge density of overlapping atoms calculated
 number of electron       8.0000000 magnetization       0.0000000
 keeping initial charge density in first step


--------------------------------------------------------------------------------------------------------


 Maximum index for augmentation-charges           83 (set IRDMAX)


--------------------------------------------------------------------------------------------------------


 First call to EWALD:  gamma=   0.110
 Maximum number of real-space cells 3x 3x 2
 Maximum number of reciprocal cells 3x 3x 3

    FEWALD:  cpu time    0.0016: real time    0.0016


--------------------------------------- Iteration      1(   1)  ---------------------------------------


    POTLOK:  cpu time    0.9766: real time    0.9763
    SETDIJ:  cpu time    0.0117: real time    0.0117
     EDDAV:  cpu time    0.6433: real time    0.6432
       DOS:  cpu time    0.0003: real time    0.0003
    --------------------------------------------
      LOOP:  cpu time    1.6319: real time    1.6314

 eigenvalue-minimisations  :    48
 total energy-change (2. order) : 0.1664865E+02  (-0.7654938E+02)
 number of electron       8.0000000 magnetization       0.0000000
 augmentation part        8.0000000 magnetization       0.0000000

 Free energy of the ion-electron system (eV)
  ---------------------------------------------------
  alpha Z        PSCENC =         0.03766056
  Ewald energy   TEWEN  =        22.47251373
  -Hartree energ DENC   =       -85.35746690
  -exchange      EXHF   =         0.00000000
  -V(xc)+E(xc)   XCENC  =        15.46008566
  PAW double counting   =        17.07221949      -17.14324176
  entropy T*S    EENTRO =        -0.00000000
  eigenvalues    EBANDS =       -35.45932543
  atomic energy  EATOM  =        99.56620307
  Solvation  Ediel_sol  =         0.00000000
  ---------------------------------------------------
  free energy    TOTEN  =        16.64864842 eV

  energy without entropy =       16.64864842  energy(sigma->0) =       16.64864842


--------------------------------------------------------------------------------------------------------




--------------------------------------- Iteration      1(   2)  ---------------------------------------


     EDDAV:  cpu time    1.0442: real time    1.0439
       DOS:  cpu time    0.0003: real time    0.0003
    --------------------------------------------
      LOOP:  cpu time    1.0445: real time    1.0442

 eigenvalue-minimisations  :    92
 total energy-change (2. order) :-0.2210797E+02  (-0.2202388E+02)
 number of electron       8.0000000 magnetization       0.0000000
 augmentation part        8.0000000 magnetization       0.0000000

 Free energy of the ion-electron system (eV)
  ---------------------------------------------------
  alpha Z        PSCENC =         0.03766056
  Ewald energy   TEWEN  =        22.47251373
  -Hartree energ DENC   =       -85.35746690
  -exchange      EXHF   =         0.00000000
  -V(xc)+E(xc)   XCENC  =        15.46008566
  PAW double counting   =        17.07221949      -17.14324176
  entropy T*S    EENTRO =        -0.00333471
  eigenvalues    EBANDS =       -57.56396159
  atomic energy  EATOM  =        99.56620307
  Solvation  Ediel_sol  =         0.00000000
  ---------------------------------------------------
  free energy    TOTEN  =        -5.45932245 eV

  energy without entropy =       -5.45598774  energy(sigma->0) =       -5.45765509


--------------------------------------------------------------------------------------------------------




--------------------------------------- Iteration      1(   3)  ---------------------------------------


     EDDAV:  cpu time    0.7376: real time    0.7373
       DOS:  cpu time    0.0003: real time    0.0003
    --------------------------------------------
      LOOP:  cpu time    0.7379: real time    0.7376

 eigenvalue-minimisations  :    60
 total energy-change (2. order) :-0.1779384E+01  (-0.1594936E+01)
 number of electron       8.0000000 magnetization       0.0000000
 augmentation part        8.0000000 magnetization       0.0000000

 Free energy of the ion-electron system (eV)
  ---------------------------------------------------
  alpha Z        PSCENC =         0.03766056
  Ewald energy   TEWEN  =        22.47251373
  -Hartree energ DENC   =       -85.35746690
  -exchange      EXHF   =         0.00000000
  -V(xc)+E(xc)   XCENC  =        15.46008566
  PAW double counting   =        17.07221949      -17.14324176
  entropy T*S    EENTRO =        -0.22307124
  eigenvalues    EBANDS =       -59.12360875
  atomic energy  EATOM  =        99.56620307
  Solvation  Ediel_sol  =         0.00000000
  ---------------------------------------------------
  free energy    TOTEN  =        -7.23870614 eV

  energy without entropy =       -7.01563490  energy(sigma->0) =       -7.12717052


--------------------------------------------------------------------------------------------------------




--------------------------------------- Iteration      1(   4)  ---------------------------------------


     EDDAV:  cpu time    0.6693: real time    0.6690
       DOS:  cpu time    0.0004: real time    0.0244
    --------------------------------------------
      LOOP:  cpu time    0.6697: real time    0.6934

 eigenvalue-minimisations  :    52
 total energy-change (2. order) :-0.7705353E-01  (-0.7450050E-01)
 number of electron       8.0000000 magnetization       0.0000000
 augmentation part        8.0000000 magnetization       0.0000000

 Free energy of the ion-electron system (eV)
  ---------------------------------------------------
  alpha Z        PSCENC =         0.03766056
  Ewald energy   TEWEN  =        22.47251373
  -Hartree energ DENC   =       -85.35746690
  -exchange      EXHF   =         0.00000000
  -V(xc)+E(xc)   XCENC  =        15.46008566
  PAW double counting   =        17.07221949      -17.14324176
  entropy T*S    EENTRO =        -0.22567555
  eigenvalues    EBANDS =       -59.19805797
  atomic energy  EATOM  =        99.56620307
  Solvation  Ediel_sol  =         0.00000000
  ---------------------------------------------------
  free energy    TOTEN  =        -7.31575967 eV

  energy without entropy =       -7.09008412  energy(sigma->0) =       -7.20292190


--------------------------------------------------------------------------------------------------------




--------------------------------------- Iteration      1(   5)  ---------------------------------------


     EDDAV:  cpu time    0.9281: real time    0.9277
       DOS:  cpu time    0.0003: real time    0.0003
    CHARGE:  cpu time    0.2821: real time    0.2820
    MIXING:  cpu time    0.0186: real time    0.0186
    --------------------------------------------
      LOOP:  cpu time    1.2292: real time    1.2287

 eigenvalue-minimisations  :    80
 total energy-change (2. order) :-0.8201949E-03  (-0.8199111E-03)
 number of electron       8.0000054 magnetization       0.0000000
 augmentation part        0.0925777 magnetization       0.0000000

 Broyden mixing:
  rms(total) = 0.13647E+00    rms(broyden)= 0.13422E+00
  rms(prec ) = 0.14296E+00
  weight for this iteration     100.00

 Free energy of the ion-electron system (eV)
  ---------------------------------------------------
  alpha Z        PSCENC =         0.03766056
  Ewald energy   TEWEN  =        22.47251373
  -Hartree energ DENC   =       -85.35746690
  -exchange      EXHF   =         0.00000000
  -V(xc)+E(xc)   XCENC  =        15.46008566
  PAW double counting   =        17.07221949      -17.14324176
  entropy T*S    EENTRO =        -0.22567583
  eigenvalues    EBANDS =       -59.19887788
  atomic energy  EATOM  =        99.56620307
  Solvation  Ediel_sol  =         0.00000000
  ---------------------------------------------------
  free energy    TOTEN  =        -7.31657987 eV

  energy without entropy =       -7.09090403  energy(sigma->0) =       -7.20374195


--------------------------------------------------------------------------------------------------------




--------------------------------------- Iteration      1(   6)  ---------------------------------------


    POTLOK:  cpu time    1.0128: real time    1.0125
    SETDIJ:  cpu time    0.0123: real time    0.0123
     EDDAV:  cpu time    0.6508: real time    0.6505
       DOS:  cpu time    0.0003: real time    0.0003
    CHARGE:  cpu time    0.2752: real time    0.2750
    MIXING:  cpu time    0.0186: real time    0.0186
    --------------------------------------------
      LOOP:  cpu time    1.9700: real time    1.9691

 eigenvalue-minimisations  :    48
 total energy-change (2. order) :-0.2173289E-01  (-0.1079583E-02)
 number of electron       8.0000054 magnetization      -0.0000000
 augmentation part        0.0928552 magnetization       0.0000000

 Broyden mixing:
  rms(total) = 0.82601E-01    rms(broyden)= 0.82461E-01
  rms(prec ) = 0.88077E-01
  weight for this iteration     100.00

 eigenvalues of (default mixing * dielectric matrix)
  average eigenvalue GAMMA=   2.5663
  2.5663

 Free energy of the ion-electron system (eV)
  ---------------------------------------------------
  alpha Z        PSCENC =         0.03766056
  Ewald energy   TEWEN  =        22.47251373
  -Hartree energ DENC   =       -84.69282674
  -exchange      EXHF   =         0.00000000
  -V(xc)+E(xc)   XCENC  =        15.30435451
  PAW double counting   =        17.44047210      -17.50526426
  entropy T*S    EENTRO =        -0.22567583
  eigenvalues    EBANDS =       -59.73574990
  atomic energy  EATOM  =        99.56620307
  Solvation  Ediel_sol  =         0.00000000
  ---------------------------------------------------
  free energy    TOTEN  =        -7.33831276 eV

  energy without entropy =       -7.11263692  energy(sigma->0) =       -7.22547484


--------------------------------------------------------------------------------------------------------




--------------------------------------- Iteration      1(   7)  ---------------------------------------


    POTLOK:  cpu time    0.9959: real time    0.9955
    SETDIJ:  cpu time    0.0125: real time    0.0125
     EDDAV:  cpu time    0.6445: real time    0.6442
       DOS:  cpu time    0.0003: real time    0.0003
    CHARGE:  cpu time    0.2725: real time    0.2724
    MIXING:  cpu time    0.0218: real time    0.0218
    --------------------------------------------
      LOOP:  cpu time    1.9475: real time    1.9521

 eigenvalue-minimisations  :    48
 total energy-change (2. order) :-0.3049913E-01  (-0.2397709E-02)
 number of electron       8.0000054 magnetization      -0.0000000
 augmentation part        0.0932378 magnetization      -0.0000001

 Broyden mixing:
  rms(total) = 0.65023E-02    rms(broyden)= 0.64528E-02
  rms(prec ) = 0.71556E-02
  weight for this iteration     100.00

 eigenvalues of (default mixing * dielectric matrix)
  average eigenvalue GAMMA=   2.5362
  2.3210  2.7513

 Free energy of the ion-electron system (eV)
  ---------------------------------------------------
  alpha Z        PSCENC =         0.03766056
  Ewald energy   TEWEN  =        22.47251373
  -Hartree energ DENC   =       -83.72826395
  -exchange      EXHF   =         0.00000000
  -V(xc)+E(xc)   XCENC  =        15.06421630
  PAW double counting   =        18.30275026      -18.35895485
  entropy T*S    EENTRO =        -0.22567583
  eigenvalues    EBANDS =       -60.49926118
  atomic energy  EATOM  =        99.56620307
  Solvation  Ediel_sol  =         0.00000000
  ---------------------------------------------------
  free energy    TOTEN  =        -7.36881189 eV

  energy without entropy =       -7.14313606  energy(sigma->0) =       -7.25597397


--------------------------------------------------------------------------------------------------------




--------------------------------------- Iteration      1(   8)  ---------------------------------------


    POTLOK:  cpu time    1.0069: real time    1.0119
    SETDIJ:  cpu time    0.0130: real time    0.0130
     EDDAV:  cpu time    0.7257: real time    0.7254
       DOS:  cpu time    0.0003: real time    0.0003
    CHARGE:  cpu time    0.2753: real time    0.2753
    MIXING:  cpu time    0.0213: real time    0.0213
    --------------------------------------------
      LOOP:  cpu time    2.0425: real time    2.0416

 eigenvalue-minimisations  :    56
 total energy-change (2. order) :-0.1229829E-02  (-0.5541885E-04)
 number of electron       8.0000054 magnetization      -0.0000000
 augmentation part        0.0933057 magnetization      -0.0000001

 Broyden mixing:
  rms(total) = 0.15200E-02    rms(broyden)= 0.15154E-02
  rms(prec ) = 0.16758E-02
  weight for this iteration     100.00

 eigenvalues of (default mixing * dielectric matrix)
  average eigenvalue GAMMA=   2.2324
  1.0421  2.6273  3.0279

 Free energy of the ion-electron system (eV)
  ---------------------------------------------------
  alpha Z        PSCENC =         0.03766056
  Ewald energy   TEWEN  =        22.47251373
  -Hartree energ DENC   =       -83.76345268
  -exchange      EXHF   =         0.00000000
  -V(xc)+E(xc)   XCENC  =        15.06711485
  PAW double counting   =        18.37128580      -18.42805411
  entropy T*S    EENTRO =        -0.22567583
  eigenvalues    EBANDS =       -60.46763710
  atomic energy  EATOM  =        99.56620307
  Solvation  Ediel_sol  =         0.00000000
  ---------------------------------------------------
  free energy    TOTEN  =        -7.37004172 eV

  energy without entropy =       -7.14436589  energy(sigma->0) =       -7.25720380


--------------------------------------------------------------------------------------------------------




--------------------------------------- Iteration      1(   9)  ---------------------------------------


    POTLOK:  cpu time    1.0033: real time    1.0029
    SETDIJ:  cpu time    0.0138: real time    0.0138
     EDDAV:  cpu time    0.7219: real time    0.7216
       DOS:  cpu time    0.0003: real time    0.0003
    CHARGE:  cpu time    0.2724: real time    0.2723
    MIXING:  cpu time    0.0236: real time    0.0236
    --------------------------------------------
      LOOP:  cpu time    2.0353: real time    2.0345

 eigenvalue-minimisations  :    56
 total energy-change (2. order) :-0.4335753E-04  (-0.2652504E-05)
 number of electron       8.0000054 magnetization      -0.0000000
 augmentation part        0.0933093 magnetization       0.0000000

 Broyden mixing:
  rms(total) = 0.22268E-03    rms(broyden)= 0.22188E-03
  rms(prec ) = 0.29843E-03
  weight for this iteration     100.00

 eigenvalues of (default mixing * dielectric matrix)
  average eigenvalue GAMMA=   2.1725
  1.0032  3.0804  2.1959  2.4103

 Free energy of the ion-electron system (eV)
  ---------------------------------------------------
  alpha Z        PSCENC =         0.03766056
  Ewald energy   TEWEN  =        22.47251373
  -Hartree energ DENC   =       -83.78791975
  -exchange      EXHF   =         0.00000000
  -V(xc)+E(xc)   XCENC  =        15.07119126
  PAW double counting   =        18.36992194      -18.42689348
  entropy T*S    EENTRO =        -0.22567583
  eigenvalues    EBANDS =       -60.44708658
  atomic energy  EATOM  =        99.56620307
  Solvation  Ediel_sol  =         0.00000000
  ---------------------------------------------------
  free energy    TOTEN  =        -7.37008508 eV

  energy without entropy =       -7.14440924  energy(sigma->0) =       -7.25724716


--------------------------------------------------------------------------------------------------------




--------------------------------------- Iteration      1(  10)  ---------------------------------------


    POTLOK:  cpu time    1.0031: real time    1.0027
    SETDIJ:  cpu time    0.0121: real time    0.0121
     EDDAV:  cpu time    0.4952: real time    0.4963
       DOS:  cpu time    0.0003: real time    0.0003
    CHARGE:  cpu time    0.2741: real time    0.2739
    MIXING:  cpu time    0.0252: real time    0.0252
    --------------------------------------------
      LOOP:  cpu time    1.8100: real time    1.8105

 eigenvalue-minimisations  :    32
 total energy-change (2. order) :-0.2677767E-05  (-0.1049485E-06)
 number of electron       8.0000054 magnetization      -0.0000000
 augmentation part        0.0933074 magnetization      -0.0000001

 Broyden mixing:
  rms(total) = 0.14527E-03    rms(broyden)= 0.14520E-03
  rms(prec ) = 0.17749E-03
  weight for this iteration     100.00

 eigenvalues of (default mixing * dielectric matrix)
  average eigenvalue GAMMA=   2.0751
  3.0896  2.7158  2.7158  1.0203  0.8337

 Free energy of the ion-electron system (eV)
  ---------------------------------------------------
  alpha Z        PSCENC =         0.03766056
  Ewald energy   TEWEN  =        22.47251373
  -Hartree energ DENC   =       -83.79416732
  -exchange      EXHF   =         0.00000000
  -V(xc)+E(xc)   XCENC  =        15.07195758
  PAW double counting   =        18.34897136      -18.40585151
  entropy T*S    EENTRO =        -0.22567583
  eigenvalues    EBANDS =       -60.44169940
  atomic energy  EATOM  =        99.56620307
  Solvation  Ediel_sol  =         0.00000000
  ---------------------------------------------------
  free energy    TOTEN  =        -7.37008775 eV

  energy without entropy =       -7.14441192  energy(sigma->0) =       -7.25724984


--------------------------------------------------------------------------------------------------------




--------------------------------------- Iteration      1(  11)  ---------------------------------------


    POTLOK:  cpu time    1.0212: real time    1.0208
    SETDIJ:  cpu time    0.0123: real time    0.0123
     EDDAV:  cpu time    0.5664: real time    0.5661
       DOS:  cpu time    0.0003: real time    0.0003
    --------------------------------------------
      LOOP:  cpu time    1.6002: real time    1.5995

 eigenvalue-minimisations  :    40
 total energy-change (2. order) :-0.4741190E-06  (-0.3473855E-07)
 number of electron       8.0000054 magnetization      -0.0000000
 augmentation part        0.0933074 magnetization      -0.0000001

 Free energy of the ion-electron system (eV)
  ---------------------------------------------------
  alpha Z        PSCENC =         0.03766056
  Ewald energy   TEWEN  =        22.47251373
  -Hartree energ DENC   =       -83.79940349
  -exchange      EXHF   =         0.00000000
  -V(xc)+E(xc)   XCENC  =        15.07282201
  PAW double counting   =        18.34369068      -18.40057542
  entropy T*S    EENTRO =        -0.22567583
  eigenvalues    EBANDS =       -60.43732353
  atomic energy  EATOM  =        99.56620307
  Solvation  Ediel_sol  =         0.00000000
  ---------------------------------------------------
  free energy    TOTEN  =        -7.37008823 eV

  energy without entropy =       -7.14441240  energy(sigma->0) =       -7.25725031


--------------------------------------------------------------------------------------------------------




 average (electrostatic) potential at core
  the test charge radii are     0.5201
  (the norm of the test charge is              1.0001)
       1 -42.5490       2 -42.5490       3 -42.5490       4 -42.5490       5 -42.5490
       6 -42.5490       7 -42.5490       8 -42.5490
 
 
 
 E-fermi :  -6.7024     XC(G=0):  -0.4899     alpha+bet : -0.0534


 spin component 1

 k-point     1 :       0.0000    0.0000    0.0000
  band No.  band energies     occupation 
      1      -8.0781      1.00000
      2      -7.7191      1.00000
      3      -7.7191      1.00000
      4      -6.7024      0.50000
      5      -6.7024      0.50000
      6      -5.3102      0.00000
      7      -5.3102      0.00000
      8      -4.4977      0.00000
      9      -0.1392      0.00000
     10      -0.1070      0.00000
     11      -0.1070      0.00000
     12       0.3001      0.00000

 spin component 2

 k-point     1 :       0.0000    0.0000    0.0000
  band No.  band energies     occupation 
      1      -8.0781      1.00000
      2      -7.7191      1.00000
      3      -7.7191      1.00000
      4      -6.7024      0.50000
      5      -6.7024      0.50000
      6      -5.3102      0.00000
      7      -5.3102      0.00000
      8      -4.4977      0.00000
      9      -0.1390      0.00000
     10      -0.1069      0.00000
     11      -0.1069      0.00000
     12       0.3003      0.00000


--------------------------------------------------------------------------------------------------------


 soft charge-density along one line, spin component           1
         0         1         2         3         4         5         6         7         8         9
 total charge-density along one line
 
 soft charge-density along one line, spin component           2
         0         1         2         3         4         5         6         7         8         9
 total charge-density along one line
 
 pseudopotential strength for first ion, spin component:           1
 -2.370  -4.086   0.000  -0.000   0.000
 -4.086  -6.959   0.000  -0.000   0.000
  0.000   0.000  -0.347   0.000  -0.000
 -0.000  -0.000   0.000  -0.347   0.000
  0.000   0.000  -0.000   0.000  -0.347
 pseudopotential strength for first ion, spin component:           2
 -2.370  -4.086   0.000  -0.000   0.000
 -4.086  -6.959   0.000  -0.000   0.000
  0.000   0.000  -0.347   0.000  -0.000
 -0.000  -0.000   0.000  -0.347   0.000
  0.000   0.000  -0.000   0.000  -0.347
 total augmentation occupancy for first ion, spin component:           1
  1.462  -0.180   0.000   0.000   0.000
 -0.180   0.023   0.000  -0.000   0.000
 -0.000   0.000   0.000   0.000   0.000
  0.000  -0.000  -0.000   0.001   0.000
 -0.000   0.000   0.000   0.000   0.000
 total augmentation occupancy for first ion, spin component:           2
  0.000  -0.000   0.000  -0.000   0.000
 -0.000   0.000   0.000   0.000   0.000
  0.000   0.000  -0.000   0.000  -0.000
 -0.000   0.000   0.000  -0.000   0.000
 -0.000   0.000  -0.000   0.000  -0.000


------------------------ aborting loop because EDIFF is reached ----------------------------------------


    CHARGE:  cpu time    0.2674: real time    0.2673
    FORLOC:  cpu time    0.0379: real time    0.0379
    FORNL :  cpu time    0.0860: real time    0.0859
    STRESS:  cpu time    0.3428: real time    0.3426
    FORHAR:  cpu time    0.0989: real time    0.0989
    MIXING:  cpu time    0.0255: real time    0.0255
    OFIELD:  cpu time    0.0001: real time    0.0001

  FORCE on cell =-STRESS in cart. coord.  units (eV):
  Direction    XX          YY          ZZ          XY          YZ          ZX
  --------------------------------------------------------------------------------------
  Alpha Z     0.03766     0.03766     0.03766
  Ewald     -25.04312   -25.04312    72.55872     0.00000     0.00000     0.00000
  Hartree     2.08680     2.08680    79.63058    -0.00000    -0.00000    -0.00000
  E(xc)     -17.32238   -17.32238   -16.23427     0.00000     0.00000    -0.00000
  Local      -5.96598    -5.96598  -182.43407     0.00000    -0.00000    -0.00000
  n-local   -12.63409   -12.63409   -12.79823     0.00000     0.00000     0.00000
  augment     0.60982     0.60982     0.61250     0.00000     0.00000     0.00000
  Kinetic    57.38285    57.38285    38.54517     0.00000     0.00000     0.00000
  Fock        0.00000     0.00000     0.00000     0.00000     0.00000     0.00000
  -------------------------------------------------------------------------------------
  Total      -0.84843    -0.84843   -20.08194    -0.00000    -0.00000    -0.00000
  in kB      -0.32834    -0.32834    -7.77170    -0.00000    -0.00000    -0.00000
  external pressure =       -2.81 kB  Pullay stress =        0.00 kB


 VOLUME and BASIS-vectors are now :
 -----------------------------------------------------------------------------
  energy-cutoff  :      300.00
  volume of cell :     4140.00
      direct lattice vectors                 reciprocal lattice vectors
    15.000000000  0.000000000  0.000000000     0.066666667 -0.000000000  0.000000000
     0.000000000 15.000000000  0.000000000     0.000000000  0.066666667  0.000000000
     0.000000000  0.000000000 18.400000000    -0.000000000 -0.000000000  0.054347826

  length of vectors
    15.000000000 15.000000000 18.400000000     0.066666667  0.066666667  0.054347826


 FORCES acting on ions
    electron-ion (+dipol)            ewald-force                    non-local-force                 convergence-correction
 -----------------------------------------------------------------------------------------------
   0.681E-17 -.105E-16 0.959E-16   -.233E-17 -.241E-17 -.888E-15   0.251E-26 0.937E-25 -.323E-26   -.664E-16 -.252E-15 -.393E-16
   0.682E-17 -.107E-16 0.244E-14   -.110E-17 -.138E-17 -.111E-15   0.358E-24 -.207E-24 0.646E-26   -.614E-16 -.258E-15 0.642E-15
   0.671E-17 -.109E-16 0.498E-14   -.447E-18 -.760E-18 0.222E-15   -.151E-24 -.132E-24 -.258E-25   -.616E-16 -.260E-15 0.272E-15
   0.122E-16 -.664E-17 0.706E-14   -.217E-18 -.962E-19 -.313E-16   0.125E-24 0.129E-24 -.355E-25   -.676E-16 -.263E-15 -.115E-16
   0.103E-16 -.679E-17 0.951E-14   -.825E-18 0.177E-18 -.278E-16   -.488E-27 0.876E-25 -.129E-25   -.636E-16 -.251E-15 -.285E-15
   0.150E-16 -.180E-17 0.123E-13   -.595E-18 0.841E-18 0.222E-15   -.205E-24 0.517E-25 0.646E-26   -.698E-16 -.260E-15 -.349E-15
   0.942E-17 -.657E-17 0.141E-13   0.559E-19 0.146E-17 0.000E+00   0.222E-24 0.181E-24 -.969E-26   -.670E-16 -.258E-15 -.373E-15
   0.145E-16 -.235E-17 0.158E-13   0.129E-17 0.249E-17 0.444E-15   -.228E-24 0.207E-24 -.404E-26   -.781E-16 -.259E-15 0.121E-16
 -----------------------------------------------------------------------------------------------
   0.817E-16 -.563E-16 0.662E-13   -.417E-17 0.323E-18 -.170E-15   0.124E-24 0.411E-24 -.784E-25   -.536E-15 -.206E-14 -.131E-15
 
 
 POSITION                                       TOTAL-FORCE (eV/Angst)
 -----------------------------------------------------------------------------------
      0.00000      0.00000      0.00000        -0.000000     -0.000000      0.000000
      0.00000      0.00000      2.30000        -0.000000      0.000000     -0.000000
      0.00000      0.00000      4.60000         0.000000      0.000000      0.000000
      0.00000      0.00000      6.90000         0.000000     -0.000000      0.000000
      0.00000      0.00000      9.20000        -0.000000     -0.000000     -0.000000
      0.00000      0.00000     11.50000         0.000000     -0.000000     -0.000000
      0.00000      0.00000     13.80000        -0.000000     -0.000000     -0.000000
      0.00000      0.00000     16.10000        -0.000000      0.000000      0.000000
 -----------------------------------------------------------------------------------
    total drift:                               -0.000000     -0.000000      0.000000


--------------------------------------------------------------------------------------------------------



  FREE ENERGIE OF THE ION-ELECTRON SYSTEM (eV)
  ---------------------------------------------------
  free  energy   TOTEN  =        -7.37008823 eV

  energy  without entropy=       -7.14441240  energy(sigma->0) =       -7.25725031
 


--------------------------------------------------------------------------------------------------------


    POTLOK:  cpu time    1.0285: real time    1.0281


--------------------------------------------------------------------------------------------------------


     LOOP+:  cpu time   18.6206: real time   18.6440
    4ORBIT:  cpu time    0.0000: real time    0.0000

 total amount of memory used by VASP MPI-rank0   140477. kBytes
=======================================================================

   base      :      30000. kBytes
   nonl-proj :       8199. kBytes
   fftplans  :      23580. kBytes
   grid      :      73990. kBytes
   one-center:         19. kBytes
   wavefun   :       4689. kBytes
 
  
  
 General timing and accounting informations for this job:
 ========================================================
  
                  Total CPU time used (sec):       19.820
                            User time (sec):       18.922
                          System time (sec):        0.897
                         Elapsed time (sec):       20.187
  
                   Maximum memory used (kb):      327760.
                   Average memory used (kb):           0.
  
                          Minor page faults:       301025
                          Major page faults:            0
                 Voluntary context switches:         1027
