<?xml version="1.0" encoding="ISO-8859-1"?>
<modeling>
 <generator>
  <i name="program" type="string">vasp </i>
  <i name="version" type="string">5.4.4.18Apr17-6-g9f103f2a35  </i>
  <i name="subversion" type="string">(build Aug 24 2024 05:40:03) complex            parallel </i>
  <i name="platform" type="string">IFC22_IMPI </i>
  <i name="date" type="string">2024 11 22 </i>
  <i name="time" type="string">21:45:35 </i>
 </generator>
 <incar>
  <i type="string" name="PREC">normal</i>
  <i type="int" name="ISPIN">     2</i>
  <i type="int" name="ICHARG">     2</i>
  <i type="int" name="NELM">   100</i>
  <i name="EDIFF">      0.00000100</i>
  <i type="int" name="NSW">     0</i>
  <i name="ENCUT">    300.00000000</i>
  <i name="NUPDOWN">      0.00000000</i>
  <i type="int" name="ISMEAR">     0</i>
  <i name="SIGMA">      0.20000000</i>
  <i type="logical" name="LWAVE"> F  </i>
  <i type="logical" name="LCHARG"> F  </i>
  <v type="int" name="KPOINT_BSE">    -1     0     0     0</v>
  <i type="int" name="NELM">   100</i>
 </incar>
 <structure name="primitive_cell" >
  <crystal>
   <varray name="basis" >
    <v>      15.00000000       0.00000000       0.00000000 </v>
    <v>       0.00000000      15.00000000       0.00000000 </v>
    <v>       0.00000000       0.00000000       2.30000000 </v>
   </varray>
   <i name="volume">    517.50000000 </i>
   <varray name="rec_basis" >
    <v>       0.06666667      -0.00000000       0.00000000 </v>
    <v>       0.00000000       0.06666667       0.00000000 </v>
    <v>      -0.00000000      -0.00000000       0.43478261 </v>
   </varray>
  </crystal>
  <varray name="positions" >
   <v>       0.00000000       0.00000000       0.00000000 </v>
  </varray>
 </structure>
 <varray name="primitive_index" >
  <v type="int" >        1 </v>
 </varray>
 <kpoints>
  <generation param="Gamma">
   <v type="int" name="divisions">       1        1        1 </v>
   <v name="usershift">      0.00000000       0.00000000       0.00000000 </v>
   <v name="genvec1">      1.00000000      -0.00000000       0.00000000 </v>
   <v name="genvec2">      0.00000000       1.00000000       0.00000000 </v>
   <v name="genvec3">     -0.00000000      -0.00000000       1.00000000 </v>
   <v name="shift">      0.00000000       0.00000000       0.00000000 </v>
  </generation>
  <varray name="kpointlist" >
   <v>       0.00000000       0.00000000       0.00000000 </v>
  </varray>
  <varray name="weights" >
   <v>       1.00000000 </v>
  </varray>
 </kpoints>
 <parameters>
  <separator name="general" >
   <i type="string" name="SYSTEM">unknown system</i>
   <i type="logical" name="LCOMPAT"> F  </i>
  </separator>
  <separator name="electronic" >
   <i type="string" name="PREC">normal</i>
   <i name="ENMAX">    300.00000000</i>
   <i name="ENAUG">    400.00000000</i>
   <i name="EDIFF">      0.00000100</i>
   <i type="int" name="IALGO">    38</i>
   <i type="int" name="IWAVPR">    10</i>
   <i type="int" name="NBANDS">    12</i>
   <i name="NELECT">      8.00000000</i>
   <i type="int" name="TURBO">     0</i>
   <i type="int" name="IRESTART">     0</i>
   <i type="int" name="NREBOOT">     0</i>
   <i type="int" name="NMIN">     0</i>
   <i name="EREF">      0.00000000</i>
   <separator name="electronic smearing" >
    <i type="int" name="ISMEAR">     0</i>
    <i name="SIGMA">      0.20000000</i>
    <i name="KSPACING">      0.50000000</i>
    <i type="logical" name="KGAMMA"> T  </i>
   </separator>
   <separator name="electronic projectors" >
    <i type="logical" name="LREAL"> F  </i>
    <v name="ROPT">      0.00000000</v>
    <i type="int" name="LMAXPAW">  -100</i>
    <i type="int" name="LMAXMIX">     2</i>
    <i type="logical" name="NLSPLINE"> F  </i>
   </separator>
   <separator name="electronic startup" >
    <i type="int" name="ISTART">     0</i>
    <i type="int" name="ICHARG">     2</i>
    <i type="int" name="INIWAV">     1</i>
   </separator>
   <separator name="electronic spin" >
    <i type="int" name="ISPIN">     2</i>
    <i type="logical" name="LNONCOLLINEAR"> F  </i>
    <v name="MAGMOM">      0.00000000      0.00000000      0.00000000      0.00000000      0.00000000      0.00000000      0.00000000      0.00000000</v>
    <i name="NUPDOWN">      0.00000000</i>
    <i type="logical" name="LSORBIT"> F  </i>
    <v name="SAXIS">      0.00000000      0.00000000      1.00000000</v>
    <i type="logical" name="LSPIRAL"> F  </i>
    <v name="QSPIRAL">      0.00000000      0.00000000      0.00000000</v>
    <i type="logical" name="LZEROZ"> F  </i>
   </separator>
   <separator name="electronic exchange-correlation" >
    <i type="logical" name="LASPH"> F  </i>
    <i type="logical" name="LMETAGGA"> F  </i>
   </separator>
   <separator name="electronic convergence" >
    <i type="int" name="NELM">   100</i>
    <i type="int" name="NELMDL">    -5</i>
    <i type="int" name="NELMIN">     2</i>
    <i name="ENINI">    300.00000000</i>
    <separator name="electronic convergence detail" >
     <i type="logical" name="LDIAG"> T  </i>
     <i type="logical" name="LSUBROT"> F  </i>
     <i name="WEIMIN">      0.00000000</i>
     <i name="EBREAK">      0.00000002</i>
     <i name="DEPER">      0.30000000</i>
     <i type="int" name="NRMM">     4</i>
     <i name="TIME">      0.40000000</i>
    </separator>
   </separator>
   <separator name="electronic mixer" >
    <i name="AMIX">      0.40000000</i>
    <i name="BMIX">      1.00000000</i>
    <i name="AMIN">      0.10000000</i>
    <i name="AMIX_MAG">      1.60000000</i>
    <i name="BMIX_MAG">      1.00000000</i>
    <separator name="electronic mixer details" >
     <i type="int" name="IMIX">     4</i>
     <i type="logical" name="MIXFIRST"> F  </i>
     <i type="int" name="MAXMIX">   -45</i>
     <i name="WC">    100.00000000</i>
     <i type="int" name="INIMIX">     1</i>
     <i type="int" name="MIXPRE">     1</i>
     <i type="int" name="MREMOVE">     5</i>
    </separator>
   </separator>
   <separator name="electronic dipolcorrection" >
    <i type="logical" name="LDIPOL"> F  </i>
    <i type="logical" name="LMONO"> F  </i>
    <i type="int" name="IDIPOL">     0</i>
    <i name="EPSILON">      1.00000000</i>
    <v name="DIPOL">   -100.00000000   -100.00000000   -100.00000000</v>
    <i name="EFIELD">      0.00000000</i>
   </separator>
  </separator>
  <separator name="grids" >
   <i type="int" name="NGX">    64</i>
   <i type="int" name="NGY">    64</i>
   <i type="int" name="NGZ">    80</i>
   <i type="int" name="NGXF">   128</i>
   <i type="int" name="NGYF">   128</i>
   <i type="int" name="NGZF">   160</i>
   <i type="logical" name="ADDGRID"> F  </i>
  </separator>
  <separator name="ionic" >
   <i type="int" name="NSW">     0</i>
   <i type="int" name="IBRION">    -1</i>
   <i type="int" name="MDALGO">     0</i>
   <i type="int" name="ISIF">     2</i>
   <i name="PSTRESS">      0.00000000</i>
   <i name="EDIFFG">      0.00001000</i>
   <i type="int" name="NFREE">     0</i>
   <i name="POTIM">      0.50000000</i>
   <i name="SMASS">     -3.00000000</i>
   <i name="SCALEE">      1.00000000</i>
  </separator>
  <separator name="ionic md" >
   <i name="TEBEG">      0.00010000</i>
   <i name="TEEND">      0.00010000</i>
   <i type="int" name="NBLOCK">     1</i>
   <i type="int" name="KBLOCK">     1</i>
   <i type="int" name="NPACO">   256</i>
   <i name="APACO">     16.00000000</i>
  </separator>
  <separator name="symmetry" >
   <i type="int" name="ISYM">     2</i>
   <i name="SYMPREC">      0.00001000</i>
  </separator>
  <separator name="dos" >
   <i type="int" name="LORBIT">     0</i>
   <v name="RWIGS">     -1.00000000</v>
   <i type="int" name="NEDOS">   301</i>
   <i name="EMIN">     10.00000000</i>
   <i name="EMAX">    -10.00000000</i>
   <i name="EFERMI">      0.00000000</i>
  </separator>
  <separator name="writing" >
   <i type="int" name="NWRITE">     2</i>
   <i type="logical" name="LWAVE"> F  </i>
   <i type="logical" name="LDOWNSAMPLE"> F  </i>
   <i type="logical" name="LCHARG"> F  </i>
   <i type="logical" name="LPARD"> F  </i>
   <i type="logical" name="LVTOT"> F  </i>
   <i type="logical" name="LVHAR"> F  </i>
   <i type="logical" name="LELF"> F  </i>
   <i type="logical" name="LOPTICS"> F  </i>
   <v name="STM">      0.00000000      0.00000000      0.00000000      0.00000000      0.00000000      0.00000000      0.00000000</v>
  </separator>
  <separator name="performance" >
   <i type="int" name="NPAR">     4</i>
   <i type="int" name="NSIM">     4</i>
   <i type="int" name="NBLK">    -1</i>
   <i type="logical" name="LPLANE"> T  </i>
   <i type="logical" name="LSCALAPACK"> T  </i>
   <i type="logical" name="LSCAAWARE"> F  </i>
   <i type="logical" name="LSCALU"> F  </i>
   <i type="logical" name="LASYNC"> F  </i>
   <i type="logical" name="LORBITALREAL"> F  </i>
  </separator>
  <separator name="miscellaneous" >
   <i type="int" name="IDIOT">     3</i>
   <i type="int" name="ISPECIAL">     0</i>
   <i type="logical" name="LMUSIC"> F  </i>
   <v name="POMASS">      1.00000000</v>
   <v name="DARWINR">      0.00000000</v>
   <v name="DARWINV">      1.00000000</v>
   <i type="logical" name="LCORR"> T  </i>
  </separator>
  <i type="logical" name="GGA_COMPAT"> T  </i>
  <i type="logical" name="LBERRY"> F  </i>
  <i type="int" name="ICORELEVEL">     0</i>
  <i type="logical" name="LDAU"> F  </i>
  <i type="int" name="I_CONSTRAINED_M">     0</i>
  <separator name="electronic exchange-correlation" >
   <i type="string" name="GGA">--</i>
   <i type="int" name="VOSKOWN">     0</i>
   <i type="logical" name="LHFCALC"> F  </i>
   <i type="string" name="PRECFOCK"></i>
   <i type="logical" name="LSYMGRAD"> F  </i>
   <i type="logical" name="LHFONE"> F  </i>
   <i type="logical" name="LRHFCALC"> F  </i>
   <i type="logical" name="LTHOMAS"> F  </i>
   <i type="logical" name="LMODELHF"> F  </i>
   <i name="ENCUT4O">     -1.00000000</i>
   <i type="int" name="EXXOEP">     0</i>
   <i type="int" name="FOURORBIT">     0</i>
   <i name="AEXX">      0.00000000</i>
   <i name="HFALPHA">      0.00000000</i>
   <i name="MCALPHA">      0.00000000</i>
   <i name="ALDAX">      1.00000000</i>
   <i name="AGGAX">      1.00000000</i>
   <i name="ALDAC">      1.00000000</i>
   <i name="AGGAC">      1.00000000</i>
   <i type="int" name="NKREDX">     1</i>
   <i type="int" name="NKREDY">     1</i>
   <i type="int" name="NKREDZ">     1</i>
   <i type="logical" name="SHIFTRED"> F  </i>
   <i type="logical" name="ODDONLY"> F  </i>
   <i type="logical" name="EVENONLY"> F  </i>
   <i type="int" name="LMAXFOCK">     0</i>
   <i type="int" name="NMAXFOCKAE">     0</i>
   <i type="logical" name="LFOCKAEDFT"> F  </i>
   <i name="HFSCREEN">      0.00000000</i>
   <i name="HFSCREENC">      0.00000000</i>
   <i type="int" name="NBANDSGWLOW">     0</i>
  </separator>
  <separator name="vdW DFT" >
   <i type="logical" name="LUSE_VDW"> F  </i>
   <i name="Zab_VDW">     -0.84910000</i>
   <i name="PARAM1">      0.12340000</i>
   <i name="PARAM2">      1.00000000</i>
   <i name="PARAM3">      0.00000000</i>
  </separator>
  <separator name="model GW" >
   <i type="int" name="MODEL_GW">     0</i>
   <i name="MODEL_EPS0">    310.50000000</i>
   <i name="MODEL_ALPHA">      1.00000000</i>
  </separator>
  <separator name="linear response parameters" >
   <i type="logical" name="LEPSILON"> F  </i>
   <i type="logical" name="LRPA"> F  </i>
   <i type="logical" name="LNABLA"> F  </i>
   <i type="logical" name="LVEL"> F  </i>
   <i type="int" name="KINTER">     0</i>
   <i name="CSHIFT">      0.10000000</i>
   <i name="OMEGAMAX">     -1.00000000</i>
   <i name="DEG_THRESHOLD">      0.00200000</i>
   <i name="RTIME">     -0.10000000</i>
   <i name="WPLASMAI">      0.00000000</i>
   <v name="DFIELD">      0.00000000      0.00000000      0.00000000</v>
   <v name="WPLASMA">      0.00000000      0.00000000      0.00000000      0.00000000      0.00000000      0.00000000      0.00000000      0.00000000      0.00000000</v>
  </separator>
  <separator name="orbital magnetization" >
   <i type="logical" name="NUCIND"> F  </i>
   <v name="MAGPOS">      0.00000000      0.00000000      0.00000000</v>
   <i type="logical" name="LNICSALL"> T  </i>
   <i type="logical" name="ORBITALMAG"> F  </i>
   <i type="logical" name="LMAGBLOCH"> F  </i>
   <i type="logical" name="LCHIMAG"> F  </i>
   <i type="logical" name="LGAUGE"> T  </i>
   <i type="int" name="MAGATOM">     0</i>
   <v name="MAGDIPOL">      0.00000000      0.00000000      0.00000000</v>
   <v name="AVECCONST">      0.00000000      0.00000000      0.00000000</v>
  </separator>
  <separator name="response functions" >
   <i type="logical" name="LADDER"> F  </i>
   <i type="logical" name="LRPAFORCE"> F  </i>
   <i type="logical" name="LFXC"> F  </i>
   <i type="logical" name="LHARTREE"> T  </i>
   <i type="int" name="IBSE">     0</i>
   <v type="int" name="KPOINT">    -1     0     0     0</v>
   <i type="logical" name="LTCTE"> F  </i>
   <i type="logical" name="LTETE"> F  </i>
   <i type="logical" name="LTRIPLET"> F  </i>
   <i type="logical" name="LFXCEPS"> F  </i>
   <i type="logical" name="LFXHEG"> F  </i>
   <i type="int" name="NATURALO">     2</i>
   <i type="logical" name="L2ORDER"> F  </i>
   <i type="logical" name="LMP2LT"> F  </i>
   <i type="logical" name="LUSEW"> F  </i>
   <i name="ENCUTGW">     -2.00000000</i>
   <i name="ENCUTGWSOFT">     -2.00000000</i>
   <i name="ENCUTLF">     -1.00000000</i>
   <i type="int" name="LMAXMP2">    -1</i>
   <i name="SCISSOR">      0.00000000</i>
   <i type="int" name="NOMEGA">     0</i>
   <i type="int" name="NOMEGAR">     0</i>
   <i type="int" name="NBANDSGW">    -1</i>
   <i type="int" name="NBANDSO">    -1</i>
   <i type="int" name="NBANDSV">    -1</i>
   <i type="int" name="NELM">   100</i>
   <i type="int" name="NELMHF">     1</i>
   <i type="int" name="DIM">     3</i>
   <i type="int" name="ANTIRES">     0</i>
   <i name="OMEGAMAX">    -30.00000000</i>
   <i name="OMEGAMIN">    -30.00000000</i>
   <i name="OMEGATL">   -200.00000000</i>
   <i type="int" name="OMEGAGRID">   140</i>
   <i name="CSHIFT">     -0.10000000</i>
   <i type="logical" name="SELFENERGY"> F  </i>
   <i type="logical" name="LSPECTRAL"> F  </i>
   <i type="logical" name="LSPECTRALGW"> F  </i>
   <i type="logical" name="LSINGLES"> F  </i>
   <i type="logical" name="LFERMIGW"> F  </i>
   <i type="logical" name="ODDONLYGW"> F  </i>
   <i type="logical" name="EVENONLYGW"> F  </i>
   <i type="int" name="NKREDLFX">     1</i>
   <i type="int" name="NKREDLFY">     1</i>
   <i type="int" name="NKREDLFZ">     1</i>
   <i type="int" name="MAXMEM">  2800</i>
   <i type="int" name="TELESCOPE">     0</i>
   <i type="int" name="TAUPAR">     1</i>
   <i type="int" name="OMEGAPAR">    -1</i>
   <i name="LAMBDA">      1.00000000</i>
  </separator>
  <separator name="External order field" >
   <i name="OFIELD_KAPPA">      0.00000000</i>
   <v name="OFIELD_K">      0.00000000      0.00000000      0.00000000</v>
   <i name="OFIELD_Q6_NEAR">      0.00000000</i>
   <i name="OFIELD_Q6_FAR">      0.00000000</i>
   <i name="OFIELD_A">      0.00000000</i>
  </separator>
 </parameters>
 <atominfo>
  <atoms>       8 </atoms>
  <types>       1 </types>
  <array name="atoms" >
   <dimension dim="1">ion</dimension>
   <field type="string">element</field>
   <field type="int">atomtype</field>
   <set>
    <rc><c>H </c><c>   1</c></rc>
    <rc><c>H </c><c>   1</c></rc>
    <rc><c>H </c><c>   1</c></rc>
    <rc><c>H </c><c>   1</c></rc>
    <rc><c>H </c><c>   1</c></rc>
    <rc><c>H </c><c>   1</c></rc>
    <rc><c>H </c><c>   1</c></rc>
    <rc><c>H </c><c>   1</c></rc>
   </set>
  </array>
  <array name="atomtypes" >
   <dimension dim="1">type</dimension>
   <field type="int">atomspertype</field>
   <field type="string">element</field>
   <field>mass</field>
   <field>valence</field>
   <field type="string">pseudopotential</field>
   <set>
    <rc><c>   8</c><c>H </c><c>      1.00000000</c><c>      1.00000000</c><c>  PAW_PBE H 15Jun2001                   </c></rc>
   </set>
  </array>
 </atominfo>
 <structure name="initialpos" >
  <crystal>
   <varray name="basis" >
    <v>      15.00000000       0.00000000       0.00000000 </v>
    <v>       0.00000000      15.00000000       0.00000000 </v>
    <v>       0.00000000       0.00000000      18.40000000 </v>
   </varray>
   <i name="volume">   4140.00000000 </i>
   <varray name="rec_basis" >
    <v>       0.06666667      -0.00000000       0.00000000 </v>
    <v>       0.00000000       0.06666667       0.00000000 </v>
    <v>      -0.00000000      -0.00000000       0.05434783 </v>
   </varray>
  </crystal>
  <varray name="positions" >
   <v>       0.00000000       0.00000000       0.00000000 </v>
   <v>       0.00000000       0.00000000       0.12500000 </v>
   <v>       0.00000000       0.00000000       0.25000000 </v>
   <v>       0.00000000       0.00000000       0.37500000 </v>
   <v>       0.00000000       0.00000000       0.50000000 </v>
   <v>       0.00000000       0.00000000       0.62500000 </v>
   <v>       0.00000000       0.00000000       0.75000000 </v>
   <v>       0.00000000       0.00000000       0.87500000 </v>
  </varray>
 </structure>
 <calculation>
  <scstep>
   <time name="dav">    0.64    0.64</time>
   <time name="total">    1.63    1.63</time>
   <energy>
    <i name="alphaZ">      0.03766056 </i>
    <i name="ewald">     22.47251373 </i>
    <i name="hartreedc">    -85.35746690 </i>
    <i name="XCdc">     15.46008566 </i>
    <i name="pawpsdc">     17.07221949 </i>
    <i name="pawaedc">    -17.14324176 </i>
    <i name="eentropy">     -0.00000000 </i>
    <i name="bandstr">    -35.45932543 </i>
    <i name="atom">     99.56620307 </i>
    <i name="e_fr_energy">     16.64864842 </i>
    <i name="e_wo_entrp">     16.64864842 </i>
    <i name="e_0_energy">     16.64864842 </i>
   </energy>
  </scstep>
  <scstep>
   <time name="dav">    1.04    1.04</time>
   <time name="total">    1.04    1.04</time>
   <energy>
    <i name="e_fr_energy">     -5.45932245 </i>
    <i name="e_wo_entrp">     -5.45598774 </i>
    <i name="e_0_energy">     -5.45765509 </i>
   </energy>
  </scstep>
  <scstep>
   <time name="dav">    0.74    0.74</time>
   <time name="total">    0.74    0.74</time>
   <energy>
    <i name="e_fr_energy">     -7.23870614 </i>
    <i name="e_wo_entrp">     -7.01563490 </i>
    <i name="e_0_energy">     -7.12717052 </i>
   </energy>
  </scstep>
  <scstep>
   <time name="dav">    0.67    0.67</time>
   <time name="total">    0.67    0.69</time>
   <energy>
    <i name="e_fr_energy">     -7.31575967 </i>
    <i name="e_wo_entrp">     -7.09008412 </i>
    <i name="e_0_energy">     -7.20292190 </i>
   </energy>
  </scstep>
  <scstep>
   <time name="dav">    0.93    0.93</time>
   <time name="total">    1.23    1.23</time>
   <energy>
    <i name="e_fr_energy">     -7.31657987 </i>
    <i name="e_wo_entrp">     -7.09090403 </i>
    <i name="e_0_energy">     -7.20374195 </i>
   </energy>
  </scstep>
  <scstep>
   <time name="dav">    0.65    0.65</time>
   <time name="total">    1.97    1.97</time>
   <energy>
    <i name="e_fr_energy">     -7.33831276 </i>
    <i name="e_wo_entrp">     -7.11263692 </i>
    <i name="e_0_energy">     -7.22547484 </i>
   </energy>
  </scstep>
  <scstep>
   <time name="dav">    0.64    0.64</time>
   <time name="total">    1.95    1.95</time>
   <energy>
    <i name="e_fr_energy">     -7.36881189 </i>
    <i name="e_wo_entrp">     -7.14313606 </i>
    <i name="e_0_energy">     -7.25597397 </i>
   </energy>
  </scstep>
  <scstep>
   <time name="dav">    0.73    0.73</time>
   <time name="total">    2.04    2.04</time>
   <energy>
    <i name="e_fr_energy">     -7.37004172 </i>
    <i name="e_wo_entrp">     -7.14436589 </i>
    <i name="e_0_energy">     -7.25720380 </i>
   </energy>
  </scstep>
  <scstep>
   <time name="dav">    0.72    0.72</time>
   <time name="total">    2.04    2.03</time>
   <energy>
    <i name="e_fr_energy">     -7.37008508 </i>
    <i name="e_wo_entrp">     -7.14440924 </i>
    <i name="e_0_energy">     -7.25724716 </i>
   </energy>
  </scstep>
  <scstep>
   <time name="dav">    0.50    0.50</time>
   <time name="total">    1.81    1.81</time>
   <energy>
    <i name="e_fr_energy">     -7.37008775 </i>
    <i name="e_wo_entrp">     -7.14441192 </i>
    <i name="e_0_energy">     -7.25724984 </i>
   </energy>
  </scstep>
  <scstep>
   <time name="dav">    0.57    0.57</time>
   <time name="total">    1.60    1.60</time>
   <energy>
    <i name="alphaZ">      0.03766056 </i>
    <i name="ewald">     22.47251373 </i>
    <i name="hartreedc">    -83.79940349 </i>
    <i name="XCdc">     15.07282201 </i>
    <i name="pawpsdc">     18.34369068 </i>
    <i name="pawaedc">    -18.40057542 </i>
    <i name="eentropy">     -0.22567583 </i>
    <i name="bandstr">    -60.43732353 </i>
    <i name="atom">     99.56620307 </i>
    <i name="e_fr_energy">     -7.37008823 </i>
    <i name="e_wo_entrp">     -7.14441240 </i>
    <i name="e_0_energy">     -7.25725031 </i>
   </energy>
  </scstep>
  <structure>
   <crystal>
    <varray name="basis" >
     <v>      15.00000000       0.00000000       0.00000000 </v>
     <v>       0.00000000      15.00000000       0.00000000 </v>
     <v>       0.00000000       0.00000000      18.40000000 </v>
    </varray>
    <i name="volume">   4140.00000000 </i>
    <varray name="rec_basis" >
     <v>       0.06666667      -0.00000000       0.00000000 </v>
     <v>       0.00000000       0.06666667       0.00000000 </v>
     <v>      -0.00000000      -0.00000000       0.05434783 </v>
    </varray>
   </crystal>
   <varray name="positions" >
    <v>       0.00000000       0.00000000       0.00000000 </v>
    <v>       0.00000000       0.00000000       0.12500000 </v>
    <v>       0.00000000       0.00000000       0.25000000 </v>
    <v>       0.00000000       0.00000000       0.37500000 </v>
    <v>       0.00000000       0.00000000       0.50000000 </v>
    <v>       0.00000000       0.00000000       0.62500000 </v>
    <v>       0.00000000       0.00000000       0.75000000 </v>
    <v>       0.00000000       0.00000000       0.87500000 </v>
   </varray>
  </structure>
  <varray name="forces" >
   <v>      -0.00000000      -0.00000000       0.00000000 </v>
   <v>      -0.00000000       0.00000000      -0.00000000 </v>
   <v>       0.00000000       0.00000000       0.00000000 </v>
   <v>       0.00000000      -0.00000000       0.00000000 </v>
   <v>      -0.00000000      -0.00000000      -0.00000000 </v>
   <v>       0.00000000      -0.00000000      -0.00000000 </v>
   <v>      -0.00000000      -0.00000000      -0.00000000 </v>
   <v>      -0.00000000       0.00000000       0.00000000 </v>
  </varray>
  <varray name="stress" >
   <v>      -0.32834218      -0.00000000      -0.00000000 </v>
   <v>      -0.00000000      -0.32834218      -0.00000000 </v>
   <v>      -0.00000000      -0.00000000      -7.77169851 </v>
  </varray>
  <energy>
   <i name="e_fr_energy">     -7.37008823 </i>
   <i name="e_wo_entrp">     -7.25725031 </i>
   <i name="e_0_energy">     -0.22567583 </i>
  </energy>
  <time name="totalsc">   18.62   18.64</time>
  <eigenvalues>
   <array>
    <dimension dim="1">band</dimension>
    <dimension dim="2">kpoint</dimension>
    <dimension dim="3">spin</dimension>
    <field>eigene</field>
    <field>occ</field>
    <set>
     <set comment="spin 1">
      <set comment="kpoint 1">
       <r>   -8.0781    1.0000 </r>
       <r>   -7.7191    1.0000 </r>
       <r>   -7.7191    1.0000 </r>
       <r>   -6.7024    0.5000 </r>
       <r>   -6.7024    0.5000 </r>
       <r>   -5.3102    0.0000 </r>
       <r>   -5.3102    0.0000 </r>
       <r>   -4.4977    0.0000 </r>
       <r>   -0.1392    0.0000 </r>
       <r>   -0.1070    0.0000 </r>
       <r>   -0.1070    0.0000 </r>
       <r>    0.3001    0.0000 </r>
      </set>
     </set>
     <set comment="spin 2">
      <set comment="kpoint 1">
       <r>   -8.0781    1.0000 </r>
       <r>   -7.7191    1.0000 </r>
       <r>   -7.7191    1.0000 </r>
       <r>   -6.7024    0.5000 </r>
       <r>   -6.7024    0.5000 </r>
       <r>   -5.3102    0.0000 </r>
       <r>   -5.3102    0.0000 </r>
       <r>   -4.4977    0.0000 </r>
       <r>   -0.1390    0.0000 </r>
       <r>   -0.1069    0.0000 </r>
       <r>   -0.1069    0.0000 </r>
       <r>    0.3003    0.0000 </r>
      </set>
     </set>
    </set>
   </array>
  </eigenvalues>
  <separator name="orbital magnetization" >
   <v name="MAGDIPOLOUT">      0.00000000      0.00000000      0.00000000</v>
  </separator>
  <dos>
   <i name="efermi">     -6.70237013 </i>
   <total>
    <array>
     <dimension dim="1">gridpoints</dimension>
     <dimension dim="2">spin</dimension>
     <field>energy</field>
     <field>total</field>
     <field>integrated</field>
     <set>
      <set comment="spin 1">
       <r>   -10.0781     0.0000     0.0000 </r>
       <r>   -10.0368     0.0000     0.0000 </r>
       <r>    -9.9955     0.0000     0.0000 </r>
       <r>    -9.9543     0.0000     0.0000 </r>
       <r>    -9.9130     0.0000     0.0000 </r>
       <r>    -9.8718     0.0000     0.0000 </r>
       <r>    -9.8305     0.0000     0.0000 </r>
       <r>    -9.7892     0.0000     0.0000 </r>
       <r>    -9.7480     0.0000     0.0000 </r>
       <r>    -9.7067     0.0000     0.0000 </r>
       <r>    -9.6654     0.0000     0.0000 </r>
       <r>    -9.6242     0.0000     0.0000 </r>
       <r>    -9.5829     0.0000     0.0000 </r>
       <r>    -9.5417     0.0000     0.0000 </r>
       <r>    -9.5004     0.0000     0.0000 </r>
       <r>    -9.4591     0.0000     0.0000 </r>
       <r>    -9.4179     0.0000     0.0000 </r>
       <r>    -9.3766     0.0000     0.0000 </r>
       <r>    -9.3354     0.0000     0.0000 </r>
       <r>    -9.2941     0.0000     0.0000 </r>
       <r>    -9.2528     0.0000     0.0000 </r>
       <r>    -9.2116     0.0000     0.0000 </r>
       <r>    -9.1703     0.0000     0.0000 </r>
       <r>    -9.1291     0.0000     0.0000 </r>
       <r>    -9.0878     0.0000     0.0000 </r>
       <r>    -9.0465     0.0000     0.0000 </r>
       <r>    -9.0053     0.0000     0.0000 </r>
       <r>    -8.9640     0.0000     0.0000 </r>
       <r>    -8.9227     0.0000     0.0000 </r>
       <r>    -8.8815     0.0000     0.0000 </r>
       <r>    -8.8402     0.0000     0.0000 </r>
       <r>    -8.7990     0.0000     0.0000 </r>
       <r>    -8.7577     0.0000     0.0000 </r>
       <r>    -8.7164     0.0001     0.0000 </r>
       <r>    -8.6752     0.0004     0.0000 </r>
       <r>    -8.6339     0.0015     0.0001 </r>
       <r>    -8.5927     0.0046     0.0003 </r>
       <r>    -8.5514     0.0132     0.0008 </r>
       <r>    -8.5101     0.0347     0.0022 </r>
       <r>    -8.4689     0.0841     0.0057 </r>
       <r>    -8.4276     0.1873     0.0134 </r>
       <r>    -8.3864     0.3833     0.0293 </r>
       <r>    -8.3451     0.7210     0.0590 </r>
       <r>    -8.3038     1.2466     0.1104 </r>
       <r>    -8.2626     1.9819     0.1922 </r>
       <r>    -8.2213     2.8989     0.3118 </r>
       <r>    -8.1800     3.9061     0.4730 </r>
       <r>    -8.1388     4.8614     0.6736 </r>
       <r>    -8.0975     5.6178     0.9054 </r>
       <r>    -8.0563     6.0905     1.1567 </r>
       <r>    -8.0150     6.3115     1.4171 </r>
       <r>    -7.9737     6.4393     1.6828 </r>
       <r>    -7.9325     6.7042     1.9594 </r>
       <r>    -7.8912     7.3035     2.2608 </r>
       <r>    -7.8500     8.2930     2.6030 </r>
       <r>    -7.8087     9.5275     2.9961 </r>
       <r>    -7.7674    10.6894     3.4371 </r>
       <r>    -7.7262    11.4009     3.9075 </r>
       <r>    -7.6849    11.3720     4.3768 </r>
       <r>    -7.6437    10.5155     4.8106 </r>
       <r>    -7.6024     8.9736     5.1809 </r>
       <r>    -7.5611     7.0517     5.4719 </r>
       <r>    -7.5199     5.0973     5.6822 </r>
       <r>    -7.4786     3.3876     5.8220 </r>
       <r>    -7.4373     2.0693     5.9073 </r>
       <r>    -7.3961     1.1618     5.9553 </r>
       <r>    -7.3548     0.5995     5.9800 </r>
       <r>    -7.3136     0.2847     5.9918 </r>
       <r>    -7.2723     0.1258     5.9970 </r>
       <r>    -7.2310     0.0558     5.9993 </r>
       <r>    -7.1898     0.0368     6.0008 </r>
       <r>    -7.1485     0.0565     6.0031 </r>
       <r>    -7.1073     0.1275     6.0084 </r>
       <r>    -7.0660     0.2883     6.0203 </r>
       <r>    -7.0247     0.6062     6.0453 </r>
       <r>    -6.9835     1.1732     6.0937 </r>
       <r>    -6.9422     2.0866     6.1798 </r>
       <r>    -6.9010     3.4106     6.3205 </r>
       <r>    -6.8597     5.1227     6.5319 </r>
       <r>    -6.8184     7.0708     6.8236 </r>
       <r>    -6.7772     8.9686     7.1937 </r>
       <r>    -6.7359    10.4538     7.6250 </r>
       <r>    -6.6946    11.1974     8.0870 </r>
       <r>    -6.6534    11.0218     8.5418 </r>
       <r>    -6.6121     9.9697     8.9532 </r>
       <r>    -6.5709     8.2871     9.2951 </r>
       <r>    -6.5296     6.3302     9.5563 </r>
       <r>    -6.4883     4.4435     9.7396 </r>
       <r>    -6.4471     2.8663     9.8579 </r>
       <r>    -6.4058     1.6990     9.9280 </r>
       <r>    -6.3646     0.9255     9.9662 </r>
       <r>    -6.3233     0.4633     9.9853 </r>
       <r>    -6.2820     0.2131     9.9941 </r>
       <r>    -6.2408     0.0901     9.9978 </r>
       <r>    -6.1995     0.0350     9.9992 </r>
       <r>    -6.1583     0.0125     9.9998 </r>
       <r>    -6.1170     0.0041     9.9999 </r>
       <r>    -6.0757     0.0012    10.0000 </r>
       <r>    -6.0345     0.0004    10.0000 </r>
       <r>    -5.9932     0.0001    10.0000 </r>
       <r>    -5.9520     0.0002    10.0000 </r>
       <r>    -5.9107     0.0008    10.0000 </r>
       <r>    -5.8694     0.0027    10.0002 </r>
       <r>    -5.8282     0.0084    10.0005 </r>
       <r>    -5.7869     0.0242    10.0015 </r>
       <r>    -5.7456     0.0643    10.0041 </r>
       <r>    -5.7044     0.1568    10.0106 </r>
       <r>    -5.6631     0.3517    10.0251 </r>
       <r>    -5.6219     0.7247    10.0550 </r>
       <r>    -5.5806     1.3724    10.1117 </r>
       <r>    -5.5393     2.3884    10.2102 </r>
       <r>    -5.4981     3.8195    10.3678 </r>
       <r>    -5.4568     5.6129    10.5994 </r>
       <r>    -5.4156     7.5800    10.9122 </r>
       <r>    -5.3743     9.4068    11.3003 </r>
       <r>    -5.3330    10.7277    11.7429 </r>
       <r>    -5.2918    11.2425    12.2068 </r>
       <r>    -5.2505    10.8271    12.6535 </r>
       <r>    -5.2093     9.5820    13.0489 </r>
       <r>    -5.1680     7.7927    13.3704 </r>
       <r>    -5.1267     5.8241    13.6107 </r>
       <r>    -5.0855     4.0003    13.7758 </r>
       <r>    -5.0442     2.5262    13.8800 </r>
       <r>    -5.0029     1.4698    13.9407 </r>
       <r>    -4.9617     0.7967    13.9736 </r>
       <r>    -4.9204     0.4248    13.9911 </r>
       <r>    -4.8792     0.2735    14.0024 </r>
       <r>    -4.8379     0.2929    14.0145 </r>
       <r>    -4.7966     0.4723    14.0339 </r>
       <r>    -4.7554     0.8309    14.0682 </r>
       <r>    -4.7141     1.3958    14.1258 </r>
       <r>    -4.6729     2.1709    14.2154 </r>
       <r>    -4.6316     3.1071    14.3436 </r>
       <r>    -4.5903     4.0878    14.5123 </r>
       <r>    -4.5491     4.9423    14.7162 </r>
       <r>    -4.5078     5.4912    14.9428 </r>
       <r>    -4.4666     5.6067    15.1741 </r>
       <r>    -4.4253     5.2605    15.3912 </r>
       <r>    -4.3840     4.5358    15.5783 </r>
       <r>    -4.3428     3.5939    15.7266 </r>
       <r>    -4.3015     2.6168    15.8346 </r>
       <r>    -4.2602     1.7509    15.9068 </r>
       <r>    -4.2190     1.0766    15.9512 </r>
       <r>    -4.1777     0.6083    15.9763 </r>
       <r>    -4.1365     0.3158    15.9894 </r>
       <r>    -4.0952     0.1507    15.9956 </r>
       <r>    -4.0539     0.0661    15.9983 </r>
       <r>    -4.0127     0.0266    15.9994 </r>
       <r>    -3.9714     0.0099    15.9998 </r>
       <r>    -3.9302     0.0034    15.9999 </r>
       <r>    -3.8889     0.0010    16.0000 </r>
       <r>    -3.8476     0.0003    16.0000 </r>
       <r>    -3.8064     0.0001    16.0000 </r>
       <r>    -3.7651     0.0000    16.0000 </r>
       <r>    -3.7239     0.0000    16.0000 </r>
       <r>    -3.6826     0.0000    16.0000 </r>
       <r>    -3.6413     0.0000    16.0000 </r>
       <r>    -3.6001     0.0000    16.0000 </r>
       <r>    -3.5588     0.0000    16.0000 </r>
       <r>    -3.5175     0.0000    16.0000 </r>
       <r>    -3.4763     0.0000    16.0000 </r>
       <r>    -3.4350     0.0000    16.0000 </r>
       <r>    -3.3938     0.0000    16.0000 </r>
       <r>    -3.3525     0.0000    16.0000 </r>
       <r>    -3.3112     0.0000    16.0000 </r>
       <r>    -3.2700     0.0000    16.0000 </r>
       <r>    -3.2287     0.0000    16.0000 </r>
       <r>    -3.1875     0.0000    16.0000 </r>
       <r>    -3.1462     0.0000    16.0000 </r>
       <r>    -3.1049     0.0000    16.0000 </r>
       <r>    -3.0637     0.0000    16.0000 </r>
       <r>    -3.0224     0.0000    16.0000 </r>
       <r>    -2.9812     0.0000    16.0000 </r>
       <r>    -2.9399     0.0000    16.0000 </r>
       <r>    -2.8986     0.0000    16.0000 </r>
       <r>    -2.8574     0.0000    16.0000 </r>
       <r>    -2.8161     0.0000    16.0000 </r>
       <r>    -2.7748     0.0000    16.0000 </r>
       <r>    -2.7336     0.0000    16.0000 </r>
       <r>    -2.6923     0.0000    16.0000 </r>
       <r>    -2.6511     0.0000    16.0000 </r>
       <r>    -2.6098     0.0000    16.0000 </r>
       <r>    -2.5685     0.0000    16.0000 </r>
       <r>    -2.5273     0.0000    16.0000 </r>
       <r>    -2.4860     0.0000    16.0000 </r>
       <r>    -2.4448     0.0000    16.0000 </r>
       <r>    -2.4035     0.0000    16.0000 </r>
       <r>    -2.3622     0.0000    16.0000 </r>
       <r>    -2.3210     0.0000    16.0000 </r>
       <r>    -2.2797     0.0000    16.0000 </r>
       <r>    -2.2385     0.0000    16.0000 </r>
       <r>    -2.1972     0.0000    16.0000 </r>
       <r>    -2.1559     0.0000    16.0000 </r>
       <r>    -2.1147     0.0000    16.0000 </r>
       <r>    -2.0734     0.0000    16.0000 </r>
       <r>    -2.0321     0.0000    16.0000 </r>
       <r>    -1.9909     0.0000    16.0000 </r>
       <r>    -1.9496     0.0000    16.0000 </r>
       <r>    -1.9084     0.0000    16.0000 </r>
       <r>    -1.8671     0.0000    16.0000 </r>
       <r>    -1.8258     0.0000    16.0000 </r>
       <r>    -1.7846     0.0000    16.0000 </r>
       <r>    -1.7433     0.0000    16.0000 </r>
       <r>    -1.7021     0.0000    16.0000 </r>
       <r>    -1.6608     0.0000    16.0000 </r>
       <r>    -1.6195     0.0000    16.0000 </r>
       <r>    -1.5783     0.0000    16.0000 </r>
       <r>    -1.5370     0.0000    16.0000 </r>
       <r>    -1.4958     0.0000    16.0000 </r>
       <r>    -1.4545     0.0000    16.0000 </r>
       <r>    -1.4132     0.0000    16.0000 </r>
       <r>    -1.3720     0.0000    16.0000 </r>
       <r>    -1.3307     0.0000    16.0000 </r>
       <r>    -1.2895     0.0000    16.0000 </r>
       <r>    -1.2482     0.0000    16.0000 </r>
       <r>    -1.2069     0.0000    16.0000 </r>
       <r>    -1.1657     0.0000    16.0000 </r>
       <r>    -1.1244     0.0000    16.0000 </r>
       <r>    -1.0831     0.0000    16.0000 </r>
       <r>    -1.0419     0.0000    16.0000 </r>
       <r>    -1.0006     0.0000    16.0000 </r>
       <r>    -0.9594     0.0000    16.0000 </r>
       <r>    -0.9181     0.0000    16.0000 </r>
       <r>    -0.8768     0.0000    16.0000 </r>
       <r>    -0.8356     0.0000    16.0000 </r>
       <r>    -0.7943     0.0001    16.0000 </r>
       <r>    -0.7531     0.0004    16.0000 </r>
       <r>    -0.7118     0.0016    16.0001 </r>
       <r>    -0.6705     0.0053    16.0003 </r>
       <r>    -0.6293     0.0161    16.0010 </r>
       <r>    -0.5880     0.0454    16.0028 </r>
       <r>    -0.5468     0.1175    16.0077 </r>
       <r>    -0.5055     0.2801    16.0193 </r>
       <r>    -0.4642     0.6139    16.0446 </r>
       <r>    -0.4230     1.2380    16.0957 </r>
       <r>    -0.3817     2.2965    16.1904 </r>
       <r>    -0.3404     3.9190    16.3521 </r>
       <r>    -0.2992     6.1524    16.6060 </r>
       <r>    -0.2579     8.8855    16.9726 </r>
       <r>    -0.2167    11.8063    17.4597 </r>
       <r>    -0.1754    14.4345    18.0553 </r>
       <r>    -0.1341    16.2447    18.7256 </r>
       <r>    -0.0929    16.8432    19.4206 </r>
       <r>    -0.0516    16.1232    20.0858 </r>
       <r>    -0.0104    14.3178    20.6766 </r>
       <r>     0.0309    11.9222    21.1685 </r>
       <r>     0.0722     9.5195    21.5613 </r>
       <r>     0.1134     7.5890    21.8744 </r>
       <r>     0.1547     6.3757    22.1375 </r>
       <r>     0.1959     5.8579    22.3792 </r>
       <r>     0.2372     5.8073    22.6188 </r>
       <r>     0.2785     5.9037    22.8624 </r>
       <r>     0.3197     5.8572    23.1041 </r>
       <r>     0.3610     5.4972    23.3309 </r>
       <r>     0.4023     4.8038    23.5291 </r>
       <r>     0.4435     3.8798    23.6892 </r>
       <r>     0.4848     2.8868    23.8083 </r>
       <r>     0.5260     1.9759    23.8898 </r>
       <r>     0.5673     1.2434    23.9411 </r>
       <r>     0.6086     0.7192    23.9708 </r>
       <r>     0.6498     0.3823    23.9866 </r>
       <r>     0.6911     0.1867    23.9943 </r>
       <r>     0.7323     0.0838    23.9978 </r>
       <r>     0.7736     0.0346    23.9992 </r>
       <r>     0.8149     0.0131    23.9997 </r>
       <r>     0.8561     0.0046    23.9999 </r>
       <r>     0.8974     0.0015    24.0000 </r>
       <r>     0.9386     0.0004    24.0000 </r>
       <r>     0.9799     0.0001    24.0000 </r>
       <r>     1.0212     0.0000    24.0000 </r>
       <r>     1.0624     0.0000    24.0000 </r>
       <r>     1.1037     0.0000    24.0000 </r>
       <r>     1.1450     0.0000    24.0000 </r>
       <r>     1.1862     0.0000    24.0000 </r>
       <r>     1.2275     0.0000    24.0000 </r>
       <r>     1.2687     0.0000    24.0000 </r>
       <r>     1.3100     0.0000    24.0000 </r>
       <r>     1.3513     0.0000    24.0000 </r>
       <r>     1.3925     0.0000    24.0000 </r>
       <r>     1.4338     0.0000    24.0000 </r>
       <r>     1.4750     0.0000    24.0000 </r>
       <r>     1.5163     0.0000    24.0000 </r>
       <r>     1.5576     0.0000    24.0000 </r>
       <r>     1.5988     0.0000    24.0000 </r>
       <r>     1.6401     0.0000    24.0000 </r>
       <r>     1.6813     0.0000    24.0000 </r>
       <r>     1.7226     0.0000    24.0000 </r>
       <r>     1.7639     0.0000    24.0000 </r>
       <r>     1.8051     0.0000    24.0000 </r>
       <r>     1.8464     0.0000    24.0000 </r>
       <r>     1.8877     0.0000    24.0000 </r>
       <r>     1.9289     0.0000    24.0000 </r>
       <r>     1.9702     0.0000    24.0000 </r>
       <r>     2.0114     0.0000    24.0000 </r>
       <r>     2.0527     0.0000    24.0000 </r>
       <r>     2.0940     0.0000    24.0000 </r>
       <r>     2.1352     0.0000    24.0000 </r>
       <r>     2.1765     0.0000    24.0000 </r>
       <r>     2.2177     0.0000    24.0000 </r>
       <r>     2.2590     0.0000    24.0000 </r>
       <r>     2.3003     0.0000    24.0000 </r>
      </set>
      <set comment="spin 2">
       <r>   -10.0781     0.0000     0.0000 </r>
       <r>   -10.0368     0.0000     0.0000 </r>
       <r>    -9.9955     0.0000     0.0000 </r>
       <r>    -9.9543     0.0000     0.0000 </r>
       <r>    -9.9130     0.0000     0.0000 </r>
       <r>    -9.8718     0.0000     0.0000 </r>
       <r>    -9.8305     0.0000     0.0000 </r>
       <r>    -9.7892     0.0000     0.0000 </r>
       <r>    -9.7480     0.0000     0.0000 </r>
       <r>    -9.7067     0.0000     0.0000 </r>
       <r>    -9.6654     0.0000     0.0000 </r>
       <r>    -9.6242     0.0000     0.0000 </r>
       <r>    -9.5829     0.0000     0.0000 </r>
       <r>    -9.5417     0.0000     0.0000 </r>
       <r>    -9.5004     0.0000     0.0000 </r>
       <r>    -9.4591     0.0000     0.0000 </r>
       <r>    -9.4179     0.0000     0.0000 </r>
       <r>    -9.3766     0.0000     0.0000 </r>
       <r>    -9.3354     0.0000     0.0000 </r>
       <r>    -9.2941     0.0000     0.0000 </r>
       <r>    -9.2528     0.0000     0.0000 </r>
       <r>    -9.2116     0.0000     0.0000 </r>
       <r>    -9.1703     0.0000     0.0000 </r>
       <r>    -9.1291     0.0000     0.0000 </r>
       <r>    -9.0878     0.0000     0.0000 </r>
       <r>    -9.0465     0.0000     0.0000 </r>
       <r>    -9.0053     0.0000     0.0000 </r>
       <r>    -8.9640     0.0000     0.0000 </r>
       <r>    -8.9227     0.0000     0.0000 </r>
       <r>    -8.8815     0.0000     0.0000 </r>
       <r>    -8.8402     0.0000     0.0000 </r>
       <r>    -8.7990     0.0000     0.0000 </r>
       <r>    -8.7577     0.0000     0.0000 </r>
       <r>    -8.7164     0.0001     0.0000 </r>
       <r>    -8.6752     0.0004     0.0000 </r>
       <r>    -8.6339     0.0015     0.0001 </r>
       <r>    -8.5927     0.0046     0.0003 </r>
       <r>    -8.5514     0.0132     0.0008 </r>
       <r>    -8.5101     0.0347     0.0022 </r>
       <r>    -8.4689     0.0841     0.0057 </r>
       <r>    -8.4276     0.1873     0.0134 </r>
       <r>    -8.3864     0.3833     0.0293 </r>
       <r>    -8.3451     0.7211     0.0590 </r>
       <r>    -8.3038     1.2467     0.1105 </r>
       <r>    -8.2626     1.9820     0.1922 </r>
       <r>    -8.2213     2.8990     0.3119 </r>
       <r>    -8.1800     3.9062     0.4730 </r>
       <r>    -8.1388     4.8615     0.6736 </r>
       <r>    -8.0975     5.6179     0.9054 </r>
       <r>    -8.0563     6.0905     1.1567 </r>
       <r>    -8.0150     6.3115     1.4171 </r>
       <r>    -7.9737     6.4394     1.6828 </r>
       <r>    -7.9325     6.7042     1.9595 </r>
       <r>    -7.8912     7.3036     2.2608 </r>
       <r>    -7.8500     8.2932     2.6030 </r>
       <r>    -7.8087     9.5277     2.9961 </r>
       <r>    -7.7674    10.6895     3.4372 </r>
       <r>    -7.7262    11.4009     3.9076 </r>
       <r>    -7.6849    11.3720     4.3768 </r>
       <r>    -7.6437    10.5153     4.8107 </r>
       <r>    -7.6024     8.9734     5.1809 </r>
       <r>    -7.5611     7.0514     5.4719 </r>
       <r>    -7.5199     5.0971     5.6822 </r>
       <r>    -7.4786     3.3874     5.8220 </r>
       <r>    -7.4373     2.0692     5.9073 </r>
       <r>    -7.3961     1.1617     5.9553 </r>
       <r>    -7.3548     0.5995     5.9800 </r>
       <r>    -7.3136     0.2847     5.9918 </r>
       <r>    -7.2723     0.1257     5.9970 </r>
       <r>    -7.2310     0.0558     5.9993 </r>
       <r>    -7.1898     0.0368     6.0008 </r>
       <r>    -7.1485     0.0565     6.0031 </r>
       <r>    -7.1073     0.1275     6.0084 </r>
       <r>    -7.0660     0.2883     6.0203 </r>
       <r>    -7.0247     0.6063     6.0453 </r>
       <r>    -6.9835     1.1732     6.0937 </r>
       <r>    -6.9422     2.0867     6.1798 </r>
       <r>    -6.9010     3.4107     6.3205 </r>
       <r>    -6.8597     5.1229     6.5319 </r>
       <r>    -6.8184     7.0710     6.8236 </r>
       <r>    -6.7772     8.9688     7.1937 </r>
       <r>    -6.7359    10.4540     7.6251 </r>
       <r>    -6.6946    11.1975     8.0871 </r>
       <r>    -6.6534    11.0218     8.5418 </r>
       <r>    -6.6121     9.9696     8.9532 </r>
       <r>    -6.5709     8.2869     9.2951 </r>
       <r>    -6.5296     6.3300     9.5563 </r>
       <r>    -6.4883     4.4433     9.7396 </r>
       <r>    -6.4471     2.8661     9.8579 </r>
       <r>    -6.4058     1.6989     9.9280 </r>
       <r>    -6.3646     0.9254     9.9662 </r>
       <r>    -6.3233     0.4632     9.9853 </r>
       <r>    -6.2820     0.2131     9.9941 </r>
       <r>    -6.2408     0.0901     9.9978 </r>
       <r>    -6.1995     0.0350     9.9992 </r>
       <r>    -6.1583     0.0125     9.9998 </r>
       <r>    -6.1170     0.0041     9.9999 </r>
       <r>    -6.0757     0.0012    10.0000 </r>
       <r>    -6.0345     0.0004    10.0000 </r>
       <r>    -5.9932     0.0001    10.0000 </r>
       <r>    -5.9520     0.0002    10.0000 </r>
       <r>    -5.9107     0.0008    10.0000 </r>
       <r>    -5.8694     0.0027    10.0002 </r>
       <r>    -5.8282     0.0084    10.0005 </r>
       <r>    -5.7869     0.0242    10.0015 </r>
       <r>    -5.7456     0.0643    10.0041 </r>
       <r>    -5.7044     0.1568    10.0106 </r>
       <r>    -5.6631     0.3517    10.0251 </r>
       <r>    -5.6219     0.7248    10.0550 </r>
       <r>    -5.5806     1.3725    10.1117 </r>
       <r>    -5.5393     2.3885    10.2102 </r>
       <r>    -5.4981     3.8196    10.3678 </r>
       <r>    -5.4568     5.6131    10.5994 </r>
       <r>    -5.4156     7.5802    10.9122 </r>
       <r>    -5.3743     9.4069    11.3003 </r>
       <r>    -5.3330    10.7278    11.7430 </r>
       <r>    -5.2918    11.2425    12.2068 </r>
       <r>    -5.2505    10.8270    12.6536 </r>
       <r>    -5.2093     9.5818    13.0489 </r>
       <r>    -5.1680     7.7926    13.3705 </r>
       <r>    -5.1267     5.8239    13.6108 </r>
       <r>    -5.0855     4.0002    13.7758 </r>
       <r>    -5.0442     2.5261    13.8800 </r>
       <r>    -5.0029     1.4698    13.9407 </r>
       <r>    -4.9617     0.7967    13.9736 </r>
       <r>    -4.9204     0.4248    13.9911 </r>
       <r>    -4.8792     0.2735    14.0024 </r>
       <r>    -4.8379     0.2929    14.0145 </r>
       <r>    -4.7966     0.4723    14.0339 </r>
       <r>    -4.7554     0.8310    14.0682 </r>
       <r>    -4.7141     1.3959    14.1258 </r>
       <r>    -4.6729     2.1710    14.2154 </r>
       <r>    -4.6316     3.1072    14.3436 </r>
       <r>    -4.5903     4.0878    14.5123 </r>
       <r>    -4.5491     4.9424    14.7162 </r>
       <r>    -4.5078     5.4913    14.9428 </r>
       <r>    -4.4666     5.6066    15.1741 </r>
       <r>    -4.4253     5.2605    15.3912 </r>
       <r>    -4.3840     4.5357    15.5783 </r>
       <r>    -4.3428     3.5938    15.7266 </r>
       <r>    -4.3015     2.6167    15.8346 </r>
       <r>    -4.2602     1.7508    15.9068 </r>
       <r>    -4.2190     1.0765    15.9512 </r>
       <r>    -4.1777     0.6083    15.9763 </r>
       <r>    -4.1365     0.3158    15.9894 </r>
       <r>    -4.0952     0.1507    15.9956 </r>
       <r>    -4.0539     0.0661    15.9983 </r>
       <r>    -4.0127     0.0266    15.9994 </r>
       <r>    -3.9714     0.0099    15.9998 </r>
       <r>    -3.9302     0.0034    15.9999 </r>
       <r>    -3.8889     0.0010    16.0000 </r>
       <r>    -3.8476     0.0003    16.0000 </r>
       <r>    -3.8064     0.0001    16.0000 </r>
       <r>    -3.7651     0.0000    16.0000 </r>
       <r>    -3.7239     0.0000    16.0000 </r>
       <r>    -3.6826     0.0000    16.0000 </r>
       <r>    -3.6413     0.0000    16.0000 </r>
       <r>    -3.6001     0.0000    16.0000 </r>
       <r>    -3.5588     0.0000    16.0000 </r>
       <r>    -3.5175     0.0000    16.0000 </r>
       <r>    -3.4763     0.0000    16.0000 </r>
       <r>    -3.4350     0.0000    16.0000 </r>
       <r>    -3.3938     0.0000    16.0000 </r>
       <r>    -3.3525     0.0000    16.0000 </r>
       <r>    -3.3112     0.0000    16.0000 </r>
       <r>    -3.2700     0.0000    16.0000 </r>
       <r>    -3.2287     0.0000    16.0000 </r>
       <r>    -3.1875     0.0000    16.0000 </r>
       <r>    -3.1462     0.0000    16.0000 </r>
       <r>    -3.1049     0.0000    16.0000 </r>
       <r>    -3.0637     0.0000    16.0000 </r>
       <r>    -3.0224     0.0000    16.0000 </r>
       <r>    -2.9812     0.0000    16.0000 </r>
       <r>    -2.9399     0.0000    16.0000 </r>
       <r>    -2.8986     0.0000    16.0000 </r>
       <r>    -2.8574     0.0000    16.0000 </r>
       <r>    -2.8161     0.0000    16.0000 </r>
       <r>    -2.7748     0.0000    16.0000 </r>
       <r>    -2.7336     0.0000    16.0000 </r>
       <r>    -2.6923     0.0000    16.0000 </r>
       <r>    -2.6511     0.0000    16.0000 </r>
       <r>    -2.6098     0.0000    16.0000 </r>
       <r>    -2.5685     0.0000    16.0000 </r>
       <r>    -2.5273     0.0000    16.0000 </r>
       <r>    -2.4860     0.0000    16.0000 </r>
       <r>    -2.4448     0.0000    16.0000 </r>
       <r>    -2.4035     0.0000    16.0000 </r>
       <r>    -2.3622     0.0000    16.0000 </r>
       <r>    -2.3210     0.0000    16.0000 </r>
       <r>    -2.2797     0.0000    16.0000 </r>
       <r>    -2.2385     0.0000    16.0000 </r>
       <r>    -2.1972     0.0000    16.0000 </r>
       <r>    -2.1559     0.0000    16.0000 </r>
       <r>    -2.1147     0.0000    16.0000 </r>
       <r>    -2.0734     0.0000    16.0000 </r>
       <r>    -2.0321     0.0000    16.0000 </r>
       <r>    -1.9909     0.0000    16.0000 </r>
       <r>    -1.9496     0.0000    16.0000 </r>
       <r>    -1.9084     0.0000    16.0000 </r>
       <r>    -1.8671     0.0000    16.0000 </r>
       <r>    -1.8258     0.0000    16.0000 </r>
       <r>    -1.7846     0.0000    16.0000 </r>
       <r>    -1.7433     0.0000    16.0000 </r>
       <r>    -1.7021     0.0000    16.0000 </r>
       <r>    -1.6608     0.0000    16.0000 </r>
       <r>    -1.6195     0.0000    16.0000 </r>
       <r>    -1.5783     0.0000    16.0000 </r>
       <r>    -1.5370     0.0000    16.0000 </r>
       <r>    -1.4958     0.0000    16.0000 </r>
       <r>    -1.4545     0.0000    16.0000 </r>
       <r>    -1.4132     0.0000    16.0000 </r>
       <r>    -1.3720     0.0000    16.0000 </r>
       <r>    -1.3307     0.0000    16.0000 </r>
       <r>    -1.2895     0.0000    16.0000 </r>
       <r>    -1.2482     0.0000    16.0000 </r>
       <r>    -1.2069     0.0000    16.0000 </r>
       <r>    -1.1657     0.0000    16.0000 </r>
       <r>    -1.1244     0.0000    16.0000 </r>
       <r>    -1.0831     0.0000    16.0000 </r>
       <r>    -1.0419     0.0000    16.0000 </r>
       <r>    -1.0006     0.0000    16.0000 </r>
       <r>    -0.9594     0.0000    16.0000 </r>
       <r>    -0.9181     0.0000    16.0000 </r>
       <r>    -0.8768     0.0000    16.0000 </r>
       <r>    -0.8356     0.0000    16.0000 </r>
       <r>    -0.7943     0.0001    16.0000 </r>
       <r>    -0.7531     0.0004    16.0000 </r>
       <r>    -0.7118     0.0016    16.0001 </r>
       <r>    -0.6705     0.0053    16.0003 </r>
       <r>    -0.6293     0.0161    16.0010 </r>
       <r>    -0.5880     0.0453    16.0028 </r>
       <r>    -0.5468     0.1173    16.0077 </r>
       <r>    -0.5055     0.2796    16.0192 </r>
       <r>    -0.4642     0.6130    16.0445 </r>
       <r>    -0.4230     1.2363    16.0955 </r>
       <r>    -0.3817     2.2939    16.1902 </r>
       <r>    -0.3404     3.9154    16.3517 </r>
       <r>    -0.2992     6.1479    16.6054 </r>
       <r>    -0.2579     8.8806    16.9718 </r>
       <r>    -0.2167    11.8018    17.4588 </r>
       <r>    -0.1754    14.4313    18.0542 </r>
       <r>    -0.1341    16.2434    18.7244 </r>
       <r>    -0.0929    16.8442    19.4195 </r>
       <r>    -0.0516    16.1259    20.0848 </r>
       <r>    -0.0104    14.3213    20.6757 </r>
       <r>     0.0309    11.9255    21.1678 </r>
       <r>     0.0722     9.5216    21.5607 </r>
       <r>     0.1134     7.5895    21.8738 </r>
       <r>     0.1547     6.3746    22.1368 </r>
       <r>     0.1959     5.8559    22.3785 </r>
       <r>     0.2372     5.8052    22.6180 </r>
       <r>     0.2785     5.9025    22.8615 </r>
       <r>     0.3197     5.8574    23.1032 </r>
       <r>     0.3610     5.4990    23.3301 </r>
       <r>     0.4023     4.8068    23.5284 </r>
       <r>     0.4435     3.8835    23.6887 </r>
       <r>     0.4848     2.8904    23.8079 </r>
       <r>     0.5260     1.9791    23.8896 </r>
       <r>     0.5673     1.2458    23.9410 </r>
       <r>     0.6086     0.7208    23.9707 </r>
       <r>     0.6498     0.3833    23.9866 </r>
       <r>     0.6911     0.1873    23.9943 </r>
       <r>     0.7323     0.0841    23.9978 </r>
       <r>     0.7736     0.0347    23.9992 </r>
       <r>     0.8149     0.0132    23.9997 </r>
       <r>     0.8561     0.0046    23.9999 </r>
       <r>     0.8974     0.0015    24.0000 </r>
       <r>     0.9386     0.0004    24.0000 </r>
       <r>     0.9799     0.0001    24.0000 </r>
       <r>     1.0212     0.0000    24.0000 </r>
       <r>     1.0624     0.0000    24.0000 </r>
       <r>     1.1037     0.0000    24.0000 </r>
       <r>     1.1450     0.0000    24.0000 </r>
       <r>     1.1862     0.0000    24.0000 </r>
       <r>     1.2275     0.0000    24.0000 </r>
       <r>     1.2687     0.0000    24.0000 </r>
       <r>     1.3100     0.0000    24.0000 </r>
       <r>     1.3513     0.0000    24.0000 </r>
       <r>     1.3925     0.0000    24.0000 </r>
       <r>     1.4338     0.0000    24.0000 </r>
       <r>     1.4750     0.0000    24.0000 </r>
       <r>     1.5163     0.0000    24.0000 </r>
       <r>     1.5576     0.0000    24.0000 </r>
       <r>     1.5988     0.0000    24.0000 </r>
       <r>     1.6401     0.0000    24.0000 </r>
       <r>     1.6813     0.0000    24.0000 </r>
       <r>     1.7226     0.0000    24.0000 </r>
       <r>     1.7639     0.0000    24.0000 </r>
       <r>     1.8051     0.0000    24.0000 </r>
       <r>     1.8464     0.0000    24.0000 </r>
       <r>     1.8877     0.0000    24.0000 </r>
       <r>     1.9289     0.0000    24.0000 </r>
       <r>     1.9702     0.0000    24.0000 </r>
       <r>     2.0114     0.0000    24.0000 </r>
       <r>     2.0527     0.0000    24.0000 </r>
       <r>     2.0940     0.0000    24.0000 </r>
       <r>     2.1352     0.0000    24.0000 </r>
       <r>     2.1765     0.0000    24.0000 </r>
       <r>     2.2177     0.0000    24.0000 </r>
       <r>     2.2590     0.0000    24.0000 </r>
       <r>     2.3003     0.0000    24.0000 </r>
      </set>
     </set>
    </array>
   </total>
  </dos>
 </calculation>
 <structure name="finalpos" >
  <crystal>
   <varray name="basis" >
    <v>      15.00000000       0.00000000       0.00000000 </v>
    <v>       0.00000000      15.00000000       0.00000000 </v>
    <v>       0.00000000       0.00000000      18.40000000 </v>
   </varray>
   <i name="volume">   4140.00000000 </i>
   <varray name="rec_basis" >
    <v>       0.06666667      -0.00000000       0.00000000 </v>
    <v>       0.00000000       0.06666667       0.00000000 </v>
    <v>      -0.00000000      -0.00000000       0.05434783 </v>
   </varray>
  </crystal>
  <varray name="positions" >
   <v>       0.00000000       0.00000000       0.00000000 </v>
   <v>       0.00000000       0.00000000       0.12500000 </v>
   <v>       0.00000000       0.00000000       0.25000000 </v>
   <v>       0.00000000       0.00000000       0.37500000 </v>
   <v>       0.00000000       0.00000000       0.50000000 </v>
   <v>       0.00000000       0.00000000       0.62500000 </v>
   <v>       0.00000000       0.00000000       0.75000000 </v>
   <v>       0.00000000       0.00000000       0.87500000 </v>
  </varray>
 </structure>
</modeling>
