   8   8   0   0
  0.4725000E+03  0.1500000E-08  0.1500000E-08  0.1680000E-08  0.5000000E-15
  1.000000000000000E-004
  CAR 
 unknown system                          
      2.40942258    -10.44702325  301     -6.68352131      1.00000000
    -10.447  0.0000E+00  0.0000E+00  0.0000E+00  0.0000E+00
    -10.404  0.0000E+00  0.0000E+00  0.0000E+00  0.0000E+00
    -10.361  0.0000E+00  0.0000E+00  0.0000E+00  0.0000E+00
    -10.318  0.0000E+00  0.0000E+00  0.0000E+00  0.0000E+00
    -10.276  0.0000E+00  0.0000E+00  0.0000E+00  0.0000E+00
    -10.233  0.0000E+00  0.0000E+00  0.0000E+00  0.0000E+00
    -10.190  0.0000E+00  0.0000E+00  0.0000E+00  0.0000E+00
    -10.147  0.0000E+00  0.0000E+00  0.0000E+00  0.0000E+00
    -10.104  0.0000E+00  0.0000E+00  0.0000E+00  0.0000E+00
    -10.061  0.0000E+00  0.0000E+00  0.0000E+00  0.0000E+00
    -10.018  0.0000E+00  0.0000E+00  0.0000E+00  0.0000E+00
     -9.976  0.0000E+00  0.0000E+00  0.0000E+00  0.0000E+00
     -9.933  0.0000E+00  0.0000E+00  0.0000E+00  0.0000E+00
     -9.890  0.0000E+00  0.0000E+00  0.0000E+00  0.0000E+00
     -9.847  0.0000E+00  0.0000E+00  0.0000E+00  0.0000E+00
     -9.804  0.0000E+00  0.0000E+00  0.0000E+00  0.0000E+00
     -9.761  0.0000E+00  0.0000E+00  0.0000E+00  0.0000E+00
     -9.718  0.0000E+00  0.0000E+00  0.0000E+00  0.0000E+00
     -9.676  0.0000E+00  0.0000E+00  0.0000E+00  0.0000E+00
     -9.633  0.0000E+00  0.0000E+00  0.0000E+00  0.0000E+00
     -9.590  0.1554E-13  0.1554E-13  0.6661E-15  0.6661E-15
     -9.547  0.1554E-12  0.1554E-12  0.7327E-14  0.7327E-14
     -9.504  0.1624E-11  0.1624E-11  0.7694E-13  0.7694E-13
     -9.461  0.1539E-10  0.1539E-10  0.7366E-12  0.7366E-12
     -9.419  0.1332E-09  0.1332E-09  0.6446E-11  0.6446E-11
     -9.376  0.1052E-08  0.1052E-08  0.5154E-10  0.5155E-10
     -9.333  0.7588E-08  0.7588E-08  0.3767E-09  0.3767E-09
     -9.290  0.4994E-07  0.4994E-07  0.2517E-08  0.2517E-08
     -9.247  0.3001E-06  0.3001E-06  0.1538E-07  0.1538E-07
     -9.204  0.1646E-05  0.1646E-05  0.8589E-07  0.8590E-07
     -9.161  0.8237E-05  0.8238E-05  0.4389E-06  0.4389E-06
     -9.119  0.3764E-04  0.3764E-04  0.2052E-05  0.2052E-05
     -9.076  0.1570E-03  0.1570E-03  0.8781E-05  0.8781E-05
     -9.033  0.5979E-03  0.5979E-03  0.3440E-04  0.3440E-04
     -8.990  0.2078E-02  0.2078E-02  0.1235E-03  0.1235E-03
     -8.947  0.6594E-02  0.6594E-02  0.4061E-03  0.4061E-03
     -8.904  0.1910E-01  0.1910E-01  0.1225E-02  0.1225E-02
     -8.861  0.5051E-01  0.5051E-01  0.3389E-02  0.3389E-02
     -8.819  0.1219E+00  0.1219E+00  0.8614E-02  0.8614E-02
     -8.776  0.2686E+00  0.2686E+00  0.2013E-01  0.2013E-01
     -8.733  0.5404E+00  0.5404E+00  0.4328E-01  0.4328E-01
     -8.690  0.9923E+00  0.9923E+00  0.8581E-01  0.8581E-01
     -8.647  0.1664E+01  0.1664E+01  0.1571E+00  0.1571E+00
     -8.604  0.2546E+01  0.2546E+01  0.2662E+00  0.2662E+00
     -8.561  0.3558E+01  0.3558E+01  0.4187E+00  0.4187E+00
     -8.519  0.4542E+01  0.4542E+01  0.6134E+00  0.6134E+00
     -8.476  0.5301E+01  0.5301E+01  0.8406E+00  0.8406E+00
     -8.433  0.5670E+01  0.5670E+01  0.1084E+01  0.1084E+01
     -8.390  0.5591E+01  0.5591E+01  0.1323E+01  0.1323E+01
     -8.347  0.5162E+01  0.5162E+01  0.1544E+01  0.1544E+01
     -8.304  0.4619E+01  0.4619E+01  0.1742E+01  0.1742E+01
     -8.261  0.4272E+01  0.4272E+01  0.1925E+01  0.1925E+01
     -8.219  0.4406E+01  0.4406E+01  0.2114E+01  0.2114E+01
     -8.176  0.5179E+01  0.5179E+01  0.2336E+01  0.2336E+01
     -8.133  0.6552E+01  0.6552E+01  0.2617E+01  0.2617E+01
     -8.090  0.8267E+01  0.8267E+01  0.2971E+01  0.2971E+01
     -8.047  0.9905E+01  0.9906E+01  0.3396E+01  0.3396E+01
     -8.004  0.1101E+02  0.1101E+02  0.3868E+01  0.3868E+01
     -7.961  0.1124E+02  0.1124E+02  0.4349E+01  0.4349E+01
     -7.919  0.1050E+02  0.1050E+02  0.4799E+01  0.4799E+01
     -7.876  0.8966E+01  0.8966E+01  0.5184E+01  0.5184E+01
     -7.833  0.6990E+01  0.6990E+01  0.5483E+01  0.5483E+01
     -7.790  0.4976E+01  0.4976E+01  0.5696E+01  0.5696E+01
     -7.747  0.3233E+01  0.3233E+01  0.5835E+01  0.5835E+01
     -7.704  0.1918E+01  0.1918E+01  0.5917E+01  0.5917E+01
     -7.661  0.1039E+01  0.1039E+01  0.5962E+01  0.5962E+01
     -7.619  0.5136E+00  0.5136E+00  0.5984E+01  0.5984E+01
     -7.576  0.2318E+00  0.2318E+00  0.5994E+01  0.5994E+01
     -7.533  0.9551E-01  0.9551E-01  0.5998E+01  0.5998E+01
     -7.490  0.3592E-01  0.3592E-01  0.5999E+01  0.5999E+01
     -7.447  0.1234E-01  0.1234E-01  0.6000E+01  0.6000E+01
     -7.404  0.3879E-02  0.3879E-02  0.6000E+01  0.6000E+01
     -7.361  0.1166E-02  0.1166E-02  0.6000E+01  0.6000E+01
     -7.319  0.5436E-03  0.5436E-03  0.6000E+01  0.6000E+01
     -7.276  0.1052E-02  0.1052E-02  0.6000E+01  0.6000E+01
     -7.233  0.3480E-02  0.3481E-02  0.6000E+01  0.6000E+01
     -7.190  0.1115E-01  0.1115E-01  0.6001E+01  0.6001E+01
     -7.147  0.3274E-01  0.3274E-01  0.6002E+01  0.6002E+01
     -7.104  0.8776E-01  0.8776E-01  0.6006E+01  0.6006E+01
     -7.061  0.2148E+00  0.2148E+00  0.6015E+01  0.6015E+01
     -7.019  0.4798E+00  0.4798E+00  0.6036E+01  0.6036E+01
     -6.976  0.9785E+00  0.9785E+00  0.6078E+01  0.6078E+01
     -6.933  0.1822E+01  0.1822E+01  0.6156E+01  0.6156E+01
     -6.890  0.3096E+01  0.3096E+01  0.6288E+01  0.6288E+01
     -6.847  0.4803E+01  0.4803E+01  0.6494E+01  0.6494E+01
     -6.804  0.6803E+01  0.6803E+01  0.6786E+01  0.6786E+01
     -6.762  0.8796E+01  0.8796E+01  0.7163E+01  0.7163E+01
     -6.719  0.1038E+02  0.1038E+02  0.7608E+01  0.7608E+01
     -6.676  0.1119E+02  0.1119E+02  0.8087E+01  0.8087E+01
     -6.633  0.1101E+02  0.1101E+02  0.8559E+01  0.8559E+01
     -6.590  0.9884E+01  0.9884E+01  0.8982E+01  0.8982E+01
     -6.547  0.8103E+01  0.8103E+01  0.9330E+01  0.9330E+01
     -6.504  0.6064E+01  0.6064E+01  0.9589E+01  0.9589E+01
     -6.462  0.4143E+01  0.4143E+01  0.9767E+01  0.9767E+01
     -6.419  0.2584E+01  0.2584E+01  0.9878E+01  0.9878E+01
     -6.376  0.1471E+01  0.1471E+01  0.9941E+01  0.9941E+01
     -6.333  0.7648E+00  0.7648E+00  0.9974E+01  0.9974E+01
     -6.290  0.3629E+00  0.3629E+00  0.9989E+01  0.9989E+01
     -6.247  0.1572E+00  0.1572E+00  0.9996E+01  0.9996E+01
     -6.204  0.6216E-01  0.6216E-01  0.9999E+01  0.9999E+01
     -6.162  0.2244E-01  0.2244E-01  0.1000E+02  0.1000E+02
     -6.119  0.7394E-02  0.7394E-02  0.1000E+02  0.1000E+02
     -6.076  0.2224E-02  0.2224E-02  0.1000E+02  0.1000E+02
     -6.033  0.6108E-03  0.6108E-03  0.1000E+02  0.1000E+02
     -5.990  0.1531E-03  0.1531E-03  0.1000E+02  0.1000E+02
     -5.947  0.3503E-04  0.3503E-04  0.1000E+02  0.1000E+02
     -5.904  0.7317E-05  0.7317E-05  0.1000E+02  0.1000E+02
     -5.862  0.1395E-05  0.1395E-05  0.1000E+02  0.1000E+02
     -5.819  0.2429E-06  0.2429E-06  0.1000E+02  0.1000E+02
     -5.776  0.3901E-07  0.3901E-07  0.1000E+02  0.1000E+02
     -5.733  0.8932E-08  0.8932E-08  0.1000E+02  0.1000E+02
     -5.690  0.2431E-07  0.2431E-07  0.1000E+02  0.1000E+02
     -5.647  0.1520E-06  0.1520E-06  0.1000E+02  0.1000E+02
     -5.604  0.8939E-06  0.8940E-06  0.1000E+02  0.1000E+02
     -5.562  0.4801E-05  0.4801E-05  0.1000E+02  0.1000E+02
     -5.519  0.2354E-04  0.2354E-04  0.1000E+02  0.1000E+02
     -5.476  0.1053E-03  0.1053E-03  0.1000E+02  0.1000E+02
     -5.433  0.4302E-03  0.4302E-03  0.1000E+02  0.1000E+02
     -5.390  0.1604E-02  0.1604E-02  0.1000E+02  0.1000E+02
     -5.347  0.5461E-02  0.5461E-02  0.1000E+02  0.1000E+02
     -5.304  0.1697E-01  0.1697E-01  0.1000E+02  0.1000E+02
     -5.262  0.4814E-01  0.4814E-01  0.1000E+02  0.1000E+02
     -5.219  0.1246E+00  0.1246E+00  0.1001E+02  0.1001E+02
     -5.176  0.2946E+00  0.2946E+00  0.1002E+02  0.1002E+02
     -5.133  0.6358E+00  0.6358E+00  0.1005E+02  0.1005E+02
     -5.090  0.1253E+01  0.1253E+01  0.1010E+02  0.1010E+02
     -5.047  0.2252E+01  0.2252E+01  0.1020E+02  0.1020E+02
     -5.004  0.3698E+01  0.3698E+01  0.1036E+02  0.1036E+02
     -4.962  0.5542E+01  0.5542E+01  0.1059E+02  0.1059E+02
     -4.919  0.7582E+01  0.7582E+01  0.1092E+02  0.1092E+02
     -4.876  0.9470E+01  0.9470E+01  0.1133E+02  0.1133E+02
     -4.833  0.1080E+02  0.1080E+02  0.1179E+02  0.1179E+02
     -4.790  0.1124E+02  0.1124E+02  0.1227E+02  0.1227E+02
     -4.747  0.1068E+02  0.1068E+02  0.1273E+02  0.1273E+02
     -4.704  0.9264E+01  0.9264E+01  0.1312E+02  0.1312E+02
     -4.662  0.7336E+01  0.7336E+01  0.1344E+02  0.1344E+02
     -4.619  0.5304E+01  0.5304E+01  0.1367E+02  0.1367E+02
     -4.576  0.3500E+01  0.3500E+01  0.1382E+02  0.1382E+02
     -4.533  0.2109E+01  0.2109E+01  0.1391E+02  0.1391E+02
     -4.490  0.1160E+01  0.1160E+01  0.1396E+02  0.1396E+02
     -4.447  0.5824E+00  0.5824E+00  0.1398E+02  0.1398E+02
     -4.404  0.2669E+00  0.2669E+00  0.1399E+02  0.1399E+02
     -4.362  0.1117E+00  0.1117E+00  0.1400E+02  0.1400E+02
     -4.319  0.4269E-01  0.4269E-01  0.1400E+02  0.1400E+02
     -4.276  0.1499E-01  0.1499E-01  0.1400E+02  0.1400E+02
     -4.233  0.5178E-02  0.5178E-02  0.1400E+02  0.1400E+02
     -4.190  0.2948E-02  0.2948E-02  0.1400E+02  0.1400E+02
     -4.147  0.5461E-02  0.5461E-02  0.1400E+02  0.1400E+02
     -4.105  0.1516E-01  0.1516E-01  0.1400E+02  0.1400E+02
     -4.062  0.4072E-01  0.4072E-01  0.1400E+02  0.1400E+02
     -4.019  0.1003E+00  0.1003E+00  0.1401E+02  0.1401E+02
     -3.976  0.2258E+00  0.2258E+00  0.1402E+02  0.1402E+02
     -3.933  0.4638E+00  0.4638E+00  0.1404E+02  0.1404E+02
     -3.890  0.8697E+00  0.8697E+00  0.1407E+02  0.1407E+02
     -3.847  0.1489E+01  0.1489E+01  0.1414E+02  0.1414E+02
     -3.805  0.2327E+01  0.2327E+01  0.1424E+02  0.1424E+02
     -3.762  0.3320E+01  0.3320E+01  0.1438E+02  0.1438E+02
     -3.719  0.4324E+01  0.4324E+01  0.1456E+02  0.1456E+02
     -3.676  0.5141E+01  0.5141E+01  0.1479E+02  0.1479E+02
     -3.633  0.5580E+01  0.5580E+01  0.1502E+02  0.1502E+02
     -3.590  0.5529E+01  0.5529E+01  0.1526E+02  0.1526E+02
     -3.547  0.5001E+01  0.5001E+01  0.1548E+02  0.1548E+02
     -3.505  0.4130E+01  0.4130E+01  0.1565E+02  0.1565E+02
     -3.462  0.3113E+01  0.3113E+01  0.1579E+02  0.1579E+02
     -3.419  0.2143E+01  0.2143E+01  0.1588E+02  0.1588E+02
     -3.376  0.1346E+01  0.1346E+01  0.1594E+02  0.1594E+02
     -3.333  0.7721E+00  0.7720E+00  0.1597E+02  0.1597E+02
     -3.290  0.4042E+00  0.4042E+00  0.1599E+02  0.1599E+02
     -3.247  0.1932E+00  0.1932E+00  0.1599E+02  0.1599E+02
     -3.205  0.8430E-01  0.8430E-01  0.1600E+02  0.1600E+02
     -3.162  0.3358E-01  0.3358E-01  0.1600E+02  0.1600E+02
     -3.119  0.1221E-01  0.1221E-01  0.1600E+02  0.1600E+02
     -3.076  0.4053E-02  0.4052E-02  0.1600E+02  0.1600E+02
     -3.033  0.1228E-02  0.1228E-02  0.1600E+02  0.1600E+02
     -2.990  0.3396E-03  0.3396E-03  0.1600E+02  0.1600E+02
     -2.947  0.8576E-04  0.8575E-04  0.1600E+02  0.1600E+02
     -2.905  0.1977E-04  0.1976E-04  0.1600E+02  0.1600E+02
     -2.862  0.4159E-05  0.4158E-05  0.1600E+02  0.1600E+02
     -2.819  0.7987E-06  0.7986E-06  0.1600E+02  0.1600E+02
     -2.776  0.1400E-06  0.1400E-06  0.1600E+02  0.1600E+02
     -2.733  0.2241E-07  0.2241E-07  0.1600E+02  0.1600E+02
     -2.690  0.3273E-08  0.3273E-08  0.1600E+02  0.1600E+02
     -2.647  0.4364E-09  0.4364E-09  0.1600E+02  0.1600E+02
     -2.605  0.5311E-10  0.5311E-10  0.1600E+02  0.1600E+02
     -2.562  0.5902E-11  0.5902E-11  0.1600E+02  0.1600E+02
     -2.519  0.5959E-12  0.5959E-12  0.1600E+02  0.1600E+02
     -2.476  0.5699E-13  0.5699E-13  0.1600E+02  0.1600E+02
     -2.433  0.5181E-14  0.5181E-14  0.1600E+02  0.1600E+02
     -2.390  0.0000E+00  0.0000E+00  0.1600E+02  0.1600E+02
     -2.347  0.0000E+00  0.0000E+00  0.1600E+02  0.1600E+02
     -2.305  0.0000E+00  0.0000E+00  0.1600E+02  0.1600E+02
     -2.262  0.0000E+00  0.0000E+00  0.1600E+02  0.1600E+02
     -2.219  0.0000E+00  0.0000E+00  0.1600E+02  0.1600E+02
     -2.176  0.0000E+00  0.0000E+00  0.1600E+02  0.1600E+02
     -2.133  0.0000E+00  0.0000E+00  0.1600E+02  0.1600E+02
     -2.090  0.0000E+00  0.0000E+00  0.1600E+02  0.1600E+02
     -2.047  0.0000E+00  0.0000E+00  0.1600E+02  0.1600E+02
     -2.005  0.0000E+00  0.0000E+00  0.1600E+02  0.1600E+02
     -1.962  0.0000E+00  0.0000E+00  0.1600E+02  0.1600E+02
     -1.919  0.0000E+00  0.0000E+00  0.1600E+02  0.1600E+02
     -1.876  0.0000E+00  0.0000E+00  0.1600E+02  0.1600E+02
     -1.833  0.0000E+00  0.0000E+00  0.1600E+02  0.1600E+02
     -1.790  0.0000E+00  0.0000E+00  0.1600E+02  0.1600E+02
     -1.747  0.0000E+00  0.0000E+00  0.1600E+02  0.1600E+02
     -1.705  0.0000E+00  0.0000E+00  0.1600E+02  0.1600E+02
     -1.662  0.0000E+00  0.0000E+00  0.1600E+02  0.1600E+02
     -1.619  0.0000E+00  0.0000E+00  0.1600E+02  0.1600E+02
     -1.576  0.0000E+00  0.0000E+00  0.1600E+02  0.1600E+02
     -1.533  0.0000E+00  0.0000E+00  0.1600E+02  0.1600E+02
     -1.490  0.0000E+00  0.0000E+00  0.1600E+02  0.1600E+02
     -1.448  0.0000E+00  0.0000E+00  0.1600E+02  0.1600E+02
     -1.405  0.0000E+00  0.0000E+00  0.1600E+02  0.1600E+02
     -1.362  0.0000E+00  0.0000E+00  0.1600E+02  0.1600E+02
     -1.319  0.0000E+00  0.0000E+00  0.1600E+02  0.1600E+02
     -1.276  0.2332E-13  0.2332E-13  0.1600E+02  0.1600E+02
     -1.233  0.2098E-12  0.2098E-12  0.1600E+02  0.1600E+02
     -1.190  0.2301E-11  0.2311E-11  0.1600E+02  0.1600E+02
     -1.148  0.2246E-10  0.2253E-10  0.1600E+02  0.1600E+02
     -1.105  0.2002E-09  0.2008E-09  0.1600E+02  0.1600E+02
     -1.062  0.1629E-08  0.1634E-08  0.1600E+02  0.1600E+02
     -1.019  0.1210E-07  0.1214E-07  0.1600E+02  0.1600E+02
     -0.976  0.8204E-07  0.8227E-07  0.1600E+02  0.1600E+02
     -0.933  0.5077E-06  0.5090E-06  0.1600E+02  0.1600E+02
     -0.890  0.2868E-05  0.2875E-05  0.1600E+02  0.1600E+02
     -0.848  0.1479E-04  0.1482E-04  0.1600E+02  0.1600E+02
     -0.805  0.6962E-04  0.6977E-04  0.1600E+02  0.1600E+02
     -0.762  0.2991E-03  0.2998E-03  0.1600E+02  0.1600E+02
     -0.719  0.1173E-02  0.1176E-02  0.1600E+02  0.1600E+02
     -0.676  0.4201E-02  0.4208E-02  0.1600E+02  0.1600E+02
     -0.633  0.1373E-01  0.1375E-01  0.1600E+02  0.1600E+02
     -0.590  0.4097E-01  0.4103E-01  0.1600E+02  0.1600E+02
     -0.548  0.1116E+00  0.1117E+00  0.1601E+02  0.1601E+02
     -0.505  0.2774E+00  0.2778E+00  0.1602E+02  0.1602E+02
     -0.462  0.6297E+00  0.6304E+00  0.1605E+02  0.1605E+02
     -0.419  0.1305E+01  0.1306E+01  0.1610E+02  0.1610E+02
     -0.376  0.2468E+01  0.2470E+01  0.1621E+02  0.1621E+02
     -0.333  0.4262E+01  0.4265E+01  0.1639E+02  0.1639E+02
     -0.290  0.6718E+01  0.6722E+01  0.1668E+02  0.1668E+02
     -0.248  0.9667E+01  0.9672E+01  0.1709E+02  0.1709E+02
     -0.205  0.1270E+02  0.1270E+02  0.1764E+02  0.1764E+02
     -0.162  0.1523E+02  0.1523E+02  0.1829E+02  0.1829E+02
     -0.119  0.1668E+02  0.1668E+02  0.1900E+02  0.1901E+02
     -0.076  0.1668E+02  0.1667E+02  0.1972E+02  0.1972E+02
     -0.033  0.1523E+02  0.1523E+02  0.2037E+02  0.2037E+02
      0.010  0.1273E+02  0.1273E+02  0.2092E+02  0.2092E+02
      0.052  0.9792E+01  0.9787E+01  0.2134E+02  0.2134E+02
      0.095  0.7029E+01  0.7025E+01  0.2164E+02  0.2164E+02
      0.138  0.4907E+01  0.4904E+01  0.2185E+02  0.2185E+02
      0.181  0.3645E+01  0.3643E+01  0.2200E+02  0.2201E+02
      0.224  0.3235E+01  0.3234E+01  0.2214E+02  0.2214E+02
      0.267  0.3504E+01  0.3503E+01  0.2229E+02  0.2229E+02
      0.310  0.4176E+01  0.4175E+01  0.2247E+02  0.2247E+02
      0.352  0.4935E+01  0.4935E+01  0.2268E+02  0.2268E+02
      0.395  0.5487E+01  0.5487E+01  0.2292E+02  0.2292E+02
      0.438  0.5627E+01  0.5627E+01  0.2316E+02  0.2316E+02
      0.481  0.5285E+01  0.5285E+01  0.2339E+02  0.2339E+02
      0.524  0.4537E+01  0.4537E+01  0.2358E+02  0.2358E+02
      0.567  0.3557E+01  0.3557E+01  0.2373E+02  0.2373E+02
      0.610  0.2546E+01  0.2546E+01  0.2384E+02  0.2384E+02
      0.652  0.1663E+01  0.1663E+01  0.2391E+02  0.2391E+02
      0.695  0.9922E+00  0.9923E+00  0.2396E+02  0.2396E+02
      0.738  0.5403E+00  0.5404E+00  0.2398E+02  0.2398E+02
      0.781  0.2686E+00  0.2686E+00  0.2399E+02  0.2399E+02
      0.824  0.1219E+00  0.1219E+00  0.2400E+02  0.2400E+02
      0.867  0.5050E-01  0.5051E-01  0.2400E+02  0.2400E+02
      0.910  0.1910E-01  0.1910E-01  0.2400E+02  0.2400E+02
      0.952  0.6593E-02  0.6594E-02  0.2400E+02  0.2400E+02
      0.995  0.2078E-02  0.2078E-02  0.2400E+02  0.2400E+02
      1.038  0.5977E-03  0.5979E-03  0.2400E+02  0.2400E+02
      1.081  0.1570E-03  0.1570E-03  0.2400E+02  0.2400E+02
      1.124  0.3763E-04  0.3764E-04  0.2400E+02  0.2400E+02
      1.167  0.8235E-05  0.8238E-05  0.2400E+02  0.2400E+02
      1.209  0.1645E-05  0.1646E-05  0.2400E+02  0.2400E+02
      1.252  0.3000E-06  0.3001E-06  0.2400E+02  0.2400E+02
      1.295  0.4993E-07  0.4994E-07  0.2400E+02  0.2400E+02
      1.338  0.7585E-08  0.7588E-08  0.2400E+02  0.2400E+02
      1.381  0.1052E-08  0.1052E-08  0.2400E+02  0.2400E+02
      1.424  0.1332E-09  0.1332E-09  0.2400E+02  0.2400E+02
      1.467  0.1539E-10  0.1540E-10  0.2400E+02  0.2400E+02
      1.509  0.1622E-11  0.1622E-11  0.2400E+02  0.2400E+02
      1.552  0.1554E-12  0.1554E-12  0.2400E+02  0.2400E+02
      1.595  0.1554E-13  0.1554E-13  0.2400E+02  0.2400E+02
      1.638  0.0000E+00  0.0000E+00  0.2400E+02  0.2400E+02
      1.681  0.0000E+00  0.0000E+00  0.2400E+02  0.2400E+02
      1.724  0.0000E+00  0.0000E+00  0.2400E+02  0.2400E+02
      1.767  0.0000E+00  0.0000E+00  0.2400E+02  0.2400E+02
      1.809  0.0000E+00  0.0000E+00  0.2400E+02  0.2400E+02
      1.852  0.0000E+00  0.0000E+00  0.2400E+02  0.2400E+02
      1.895  0.0000E+00  0.0000E+00  0.2400E+02  0.2400E+02
      1.938  0.0000E+00  0.0000E+00  0.2400E+02  0.2400E+02
      1.981  0.0000E+00  0.0000E+00  0.2400E+02  0.2400E+02
      2.024  0.0000E+00  0.0000E+00  0.2400E+02  0.2400E+02
      2.067  0.0000E+00  0.0000E+00  0.2400E+02  0.2400E+02
      2.109  0.0000E+00  0.0000E+00  0.2400E+02  0.2400E+02
      2.152  0.0000E+00  0.0000E+00  0.2400E+02  0.2400E+02
      2.195  0.0000E+00  0.0000E+00  0.2400E+02  0.2400E+02
      2.238  0.0000E+00  0.0000E+00  0.2400E+02  0.2400E+02
      2.281  0.0000E+00  0.0000E+00  0.2400E+02  0.2400E+02
      2.324  0.0000E+00  0.0000E+00  0.2400E+02  0.2400E+02
      2.367  0.0000E+00  0.0000E+00  0.2400E+02  0.2400E+02
      2.409  0.0000E+00  0.0000E+00  0.2400E+02  0.2400E+02
