    8    8    1    2
  0.4725000E+03  0.1500000E-08  0.1500000E-08  0.1680000E-08  0.5000000E-15
  1.000000000000000E-004
  CAR 
 unknown system                          
      8      1     12
 
  0.0000000E+00  0.0000000E+00  0.0000000E+00  0.1000000E+01
    1       -8.447023     -8.447023   1.000000   1.000000
    2       -7.992704     -7.992704   1.000000   1.000000
    3       -7.992704     -7.992704   1.000000   1.000000
    4       -6.683521     -6.683521   0.500000   0.500000
    5       -6.683521     -6.683521   0.500000   0.500000
    6       -4.814195     -4.814196   0.000000   0.000000
    7       -4.814195     -4.814196   0.000000   0.000000
    8       -3.637415     -3.637416   0.000000   0.000000
    9       -0.119384     -0.119372   0.000000   0.000000
   10       -0.119202     -0.119302   0.000000   0.000000
   11       -0.119202     -0.119302   0.000000   0.000000
   12        0.409414      0.409423   0.000000   0.000000
