       N       E                     dE             d eps       ncg     rms          rms(c)
DAV:   1     0.168728421189E+02    0.16873E+02   -0.79144E+02    48   0.175E+02
DAV:   2    -0.677587782887E+01   -0.23649E+02   -0.23526E+02    92   0.515E+01
DAV:   3    -0.908643335645E+01   -0.23106E+01   -0.21113E+01    72   0.198E+01
DAV:   4    -0.914437280730E+01   -0.57939E-01   -0.57145E-01    56   0.298E+00
DAV:   5    -0.914495206979E+01   -0.57926E-03   -0.57921E-03    72   0.299E-01    0.135E+00
DAV:   6    -0.917755911171E+01   -0.32607E-01   -0.10551E-02    48   0.575E-01    0.818E-01
DAV:   7    -0.921000683330E+01   -0.32448E-01   -0.19742E-02    64   0.681E-01    0.599E-02
DAV:   8    -0.921106828537E+01   -0.10615E-02   -0.31564E-04    48   0.103E-01    0.178E-02
DAV:   9    -0.921116724259E+01   -0.98957E-04   -0.41696E-05    56   0.346E-02    0.439E-03
DAV:  10    -0.921124608683E+01   -0.78844E-04   -0.83969E-06    56   0.110E-02    0.285E-03
DAV:  11    -0.921128109683E+01   -0.35010E-04   -0.47344E-06    48   0.798E-03    0.169E-03
DAV:  12    -0.921131046708E+01   -0.29370E-04   -0.57301E-07    32   0.293E-03    0.125E-03
DAV:  13    -0.921134265028E+01   -0.32183E-04   -0.24923E-06    48   0.530E-03    0.499E-04
DAV:  14    -0.921135191711E+01   -0.92668E-05   -0.11448E-07    32   0.152E-03    0.386E-04
DAV:  15    -0.921137776988E+01   -0.25853E-04   -0.88294E-07    32   0.302E-03    0.175E-04
DAV:  16    -0.921138284425E+01   -0.50744E-05   -0.14504E-07    32   0.122E-03    0.131E-04
DAV:  17    -0.921138713972E+01   -0.42955E-05   -0.72943E-08    32   0.978E-04    0.656E-05
DAV:  18    -0.921138840303E+01   -0.12633E-05   -0.24750E-08    32   0.578E-04    0.200E-05
DAV:  19    -0.921138880787E+01   -0.40484E-06   -0.36621E-09    32   0.268E-04
   1 F= -.92113888E+01 E0= -.90985509E+01  d E =-.225676E+00  mag=    -0.0000
