 vasp.5.4.4.18Apr17-6-g9f103f2a35 (build Aug 24 2024 05:40:03) complex          
  
 executed on           IFC22_IMPI date 2024.11.22  21:44:23
 running on    4 total cores
 distrk:  each k-point on    4 cores,    1 groups
 distr:  one band on NCORES_PER_BAND=   1 cores,    4 groups


--------------------------------------------------------------------------------------------------------


 INCAR:
 POTCAR:    PAW_PBE H 15Jun2001                   
 POTCAR:    PAW_PBE H 15Jun2001                   
   VRHFIN =H: ultrasoft test                                                    
   LEXCH  = PE                                                                  
   EATOM  =    12.4884 eV,    0.9179 Ry                                         
                                                                                
   TITEL  = PAW_PBE H 15Jun2001                                                 
   LULTRA =        F    use ultrasoft PP ?                                      
   IUNSCR =        0    unscreen: 0-lin 1-nonlin 2-no                           
   RPACOR =    0.000    partial core radius                                     
   POMASS =    1.000; ZVAL   =    1.000    mass and valenz                      
   RCORE  =    1.100    outmost cutoff radius                                   
   RWIGS  =    0.700; RWIGS  =    0.370    wigner-seitz radius (au A)           
   ENMAX  =  250.000; ENMIN  =  200.000 eV                                      
   RCLOC  =    0.701    cutoff for local pot                                    
   LCOR   =        T    correct aug charges                                     
   LPAW   =        T    paw PP                                                  
   EAUG   =  400.000                                                            
   RMAX   =    1.123    core radius for proj-oper                               
   RAUG   =    1.200    factor for augmentation sphere                          
   RDEP   =    1.112    radius for radial grids                                 
   RDEPT  =    0.926    core radius for aug-charge                              
                                                                                
   Atomic configuration                                                         
    2 entries                                                                   
     n  l   j            E        occ.                                          
     1  0  0.50        -6.4927   1.0000                                         
     2  1  0.50        -3.4015   0.0000                                         
   Description                                                                  
     l       E           TYP  RCUT    TYP  RCUT                                 
     0     -6.4927494     23  1.100                                             
     0      6.8029130     23  1.100                                             
     1     -4.0817478     23  1.100                                             
  local pseudopotential read in
  atomic valenz-charges read in
  non local Contribution for L=           0  read in
    real space projection operators read in
  non local Contribution for L=           0  read in
    real space projection operators read in
  non local Contribution for L=           1  read in
    real space projection operators read in
    PAW grid and wavefunctions read in
 
   number of l-projection  operators is LMAX  =           3
   number of lm-projection operators is LMMAX =           5
 
  PAW_PBE H 15Jun2001                   :
 energy of atom  1       EATOM=  -12.4884
 kinetic energy error for atom=    0.0426 (will be added to EATOM!!)
 
 
 POSCAR: H8                                      
  positions in direct lattice
  No initial velocities read in
 exchange correlation table for  LEXCH =        8
   RHO(1)=    0.500       N(1)  =     2000
   RHO(2)=  100.500       N(2)  =     4000
 


--------------------------------------------------------------------------------------------------------


 ion  position               nearest neighbor table
   1  0.000  0.000  0.000-
   2  0.000  0.000  0.125-
   3  0.000  0.000  0.250-
   4  0.000  0.000  0.375-
   5  0.000  0.000  0.500-
   6  0.000  0.000  0.625-
   7  0.000  0.000  0.750-
   8  0.000  0.000  0.875-
 
  LATTYP: Found a simple tetragonal cell.
 ALAT       =    15.0000000000
 C/A-ratio  =     1.1200000000
  
  Lattice vectors:
  
 A1 = (  15.0000000000,   0.0000000000,   0.0000000000)
 A2 = (   0.0000000000,  15.0000000000,   0.0000000000)
 A3 = (   0.0000000000,   0.0000000000,  16.8000000000)


Analysis of symmetry for initial positions (statically):
=====================================================================
 Subroutine PRICEL returns following result:
 
  LATTYP: Found a simple tetragonal cell.
 ALAT       =    15.0000000000
 C/A-ratio  =     0.1400000000
  
  Lattice vectors:
  
 A1 = (  15.0000000000,   0.0000000000,   0.0000000000)
 A2 = (   0.0000000000,  15.0000000000,   0.0000000000)
 A3 = (   0.0000000000,   0.0000000000,   2.1000000000)
 
   8 primitive cells build up your supercell.
 

 Routine SETGRP: Setting up the symmetry group for a 
 simple tetragonal supercell.


 Subroutine GETGRP returns: Found 16 space group operations
 (whereof 16 operations were pure point group operations)
 out of a pool of 16 trial point group operations.


The static configuration has the point symmetry D_4h.


Analysis of symmetry for dynamics (positions and initial velocities):
=====================================================================
 Subroutine PRICEL returns following result:
 
  LATTYP: Found a simple tetragonal cell.
 ALAT       =    15.0000000000
 C/A-ratio  =     0.1400000000
  
  Lattice vectors:
  
 A1 = (  15.0000000000,   0.0000000000,   0.0000000000)
 A2 = (   0.0000000000,  15.0000000000,   0.0000000000)
 A3 = (   0.0000000000,   0.0000000000,   2.1000000000)
 
   8 primitive cells build up your supercell.
 

 Routine SETGRP: Setting up the symmetry group for a 
 simple tetragonal supercell.


 Subroutine GETGRP returns: Found 16 space group operations
 (whereof 16 operations were pure point group operations)
 out of a pool of 16 trial point group operations.


The dynamic configuration has the point symmetry D_4h.


Analysis of structural, dynamic, and magnetic symmetry:
=====================================================================
 Subroutine PRICEL returns following result:
 
  LATTYP: Found a simple tetragonal cell.
 ALAT       =    15.0000000000
 C/A-ratio  =     0.1400000000
  
  Lattice vectors:
  
 A1 = (  15.0000000000,   0.0000000000,   0.0000000000)
 A2 = (   0.0000000000,  15.0000000000,   0.0000000000)
 A3 = (   0.0000000000,   0.0000000000,   2.1000000000)
 
   8 primitive cells build up your supercell.
 

 Routine SETGRP: Setting up the symmetry group for a 
 simple tetragonal supercell.


 Subroutine GETGRP returns: Found 16 space group operations
 (whereof 16 operations were pure point group operations)
 out of a pool of 16 trial point group operations.


The magnetic configuration has the point symmetry D_4h.


 Subroutine INISYM returns: Found 16 space group operations
 (whereof 16 operations are pure point group operations),
 and found     8 'primitive' translations

 
 
 KPOINTS: Automatic kpoint scheme                 

Automatic generation of k-mesh.
Space group operators:
 irot       det(A)        alpha          n_x          n_y          n_z        tau_x        tau_y        tau_z
    1     1.000000     0.000000     1.000000     0.000000     0.000000     0.000000     0.000000     0.000000
    2    -1.000000     0.000000     1.000000     0.000000     0.000000     0.000000     0.000000     0.000000
    3     1.000000    90.000000     0.000000     0.000000    -1.000000     0.000000     0.000000     0.000000
    4    -1.000000    90.000000     0.000000     0.000000    -1.000000     0.000000     0.000000     0.000000
    5     1.000000   180.000000    -0.000000    -0.000000     1.000000     0.000000     0.000000     0.000000
    6    -1.000000   180.000000    -0.000000    -0.000000     1.000000     0.000000     0.000000     0.000000
    7     1.000000    90.000000    -0.000000    -0.000000     1.000000     0.000000     0.000000     0.000000
    8    -1.000000    90.000000    -0.000000    -0.000000     1.000000     0.000000     0.000000     0.000000
    9     1.000000   180.000000     0.000000     1.000000     0.000000     0.000000     0.000000     0.000000
   10    -1.000000   180.000000     0.000000     1.000000     0.000000     0.000000     0.000000     0.000000
   11     1.000000   180.000000     0.707107     0.707107     0.000000     0.000000     0.000000     0.000000
   12    -1.000000   180.000000     0.707107     0.707107     0.000000     0.000000     0.000000     0.000000
   13     1.000000   180.000000     1.000000    -0.000000     0.000000     0.000000     0.000000     0.000000
   14    -1.000000   180.000000     1.000000    -0.000000     0.000000     0.000000     0.000000     0.000000
   15     1.000000   180.000000     0.707107    -0.707107     0.000000     0.000000     0.000000     0.000000
   16    -1.000000   180.000000     0.707107    -0.707107     0.000000     0.000000     0.000000     0.000000
 
 Subroutine IBZKPT returns following result:
 ===========================================
 
 Found      1 irreducible k-points:
 
 Following reciprocal coordinates:
            Coordinates               Weight
  0.000000  0.000000  0.000000      1.000000
 
 Following cartesian coordinates:
            Coordinates               Weight
  0.000000  0.000000  0.000000      1.000000
 


--------------------------------------------------------------------------------------------------------




 Dimension of arrays:
   k-points           NKPTS =      1   k-points in BZ     NKDIM =      1   number of bands    NBANDS=     12
   number of dos      NEDOS =    301   number of ions     NIONS =      8
   non local maximal  LDIM  =      3   non local SUM 2l+1 LMDIM =      5
   total plane-waves  NPLWV = 294912
   max r-space proj   IRMAX =      1   max aug-charges    IRDMAX=    579
   dimension x,y,z NGX =    64 NGY =   64 NGZ =   72
   dimension x,y,z NGXF=   128 NGYF=  128 NGZF=  144
   support grid    NGXF=   128 NGYF=  128 NGZF=  144
   ions per type =               8
   NGX,Y,Z   is equivalent  to a cutoff of   7.09,  7.09,  7.12 a.u.
   NGXF,Y,Z  is equivalent  to a cutoff of  14.19, 14.19, 14.25 a.u.

 SYSTEM =  unknown system                          
 POSCAR =  H8                                      

 Startparameter for this run:
   NWRITE =      2    write-flag & timer
   PREC   = normal    normal or accurate (medium, high low for compatibility)
   ISTART =      0    job   : 0-new  1-cont  2-samecut
   ICHARG =      2    charge: 1-file 2-atom 10-const
   ISPIN  =      2    spin polarized calculation?
   LNONCOLLINEAR =      F non collinear calculations
   LSORBIT =      F    spin-orbit coupling
   INIWAV =      1    electr: 0-lowe 1-rand  2-diag
   LASPH  =      F    aspherical Exc in radial PAW
   METAGGA=      F    non-selfconsistent MetaGGA calc.

 Electronic Relaxation 1
   ENCUT  =  300.0 eV  22.05 Ry    4.70 a.u.  21.18 21.18 23.73*2*pi/ulx,y,z
   ENINI  =  300.0     initial cutoff
   ENAUG  =  400.0 eV  augmentation charge cutoff
   NELM   =    100;   NELMIN=  2; NELMDL= -5     # of ELM steps 
   EDIFF  = 0.1E-05   stopping-criterion for ELM
   LREAL  =      F    real-space projection
   NLSPLINE    = F    spline interpolate recip. space projectors
   LCOMPAT=      F    compatible to vasp.4.4
   GGA_COMPAT  = T    GGA compatible to vasp.4.4-vasp.4.6
   LMAXPAW     = -100 max onsite density
   LMAXMIX     =    2 max onsite mixed and CHGCAR
   VOSKOWN=      0    Vosko Wilk Nusair interpolation
   ROPT   =    0.00000
 Ionic relaxation
   EDIFFG = 0.1E-04   stopping-criterion for IOM
   NSW    =      0    number of steps for IOM
   NBLOCK =      1;   KBLOCK =      1    inner block; outer block 
   IBRION =     -1    ionic relax: 0-MD 1-quasi-New 2-CG
   NFREE  =      0    steps in history (QN), initial steepest desc. (CG)
   ISIF   =      2    stress and relaxation
   IWAVPR =     10    prediction:  0-non 1-charg 2-wave 3-comb
   ISYM   =      2    0-nonsym 1-usesym 2-fastsym
   LCORR  =      T    Harris-Foulkes like correction to forces

   POTIM  = 0.5000    time-step for ionic-motion
   TEIN   =    0.0    initial temperature
   TEBEG  =    0.0;   TEEND  =   0.0 temperature during run
   SMASS  =  -3.00    Nose mass-parameter (am)
   estimated Nose-frequenzy (Omega)   =  0.10E-29 period in steps =****** mass=  -0.514E-26a.u.
   SCALEE = 1.0000    scale energy and forces
   NPACO  =    256;   APACO  = 16.0  distance and # of slots for P.C.
   PSTRESS=    0.0 pullay stress

  Mass of Ions in am
   POMASS =   1.00
  Ionic Valenz
   ZVAL   =   1.00
  Atomic Wigner-Seitz radii
   RWIGS  =  -1.00
  virtual crystal weights 
   VCA    =   1.00
   NELECT =       8.0000    total number of electrons
   NUPDOWN=       0.0000    fix difference up-down

 DOS related values:
   EMIN   =  10.00;   EMAX   =-10.00  energy-range for DOS
   EFERMI =   0.00
   ISMEAR =     0;   SIGMA  =   0.20  broadening in eV -4-tet -1-fermi 0-gaus

 Electronic relaxation 2 (details)
   IALGO  =     38    algorithm
   LDIAG  =      T    sub-space diagonalisation (order eigenvalues)
   LSUBROT=      F    optimize rotation matrix (better conditioning)
   TURBO    =      0    0=normal 1=particle mesh
   IRESTART =      0    0=no restart 2=restart with 2 vectors
   NREBOOT  =      0    no. of reboots
   NMIN     =      0    reboot dimension
   EREF     =   0.00    reference energy to select bands
   IMIX   =      4    mixing-type and parameters
     AMIX     =   0.40;   BMIX     =  1.00
     AMIX_MAG =   1.60;   BMIX_MAG =  1.00
     AMIN     =   0.10
     WC   =   100.;   INIMIX=   1;  MIXPRE=   1;  MAXMIX= -45

 Intra band minimization:
   WEIMIN = 0.0000     energy-eigenvalue tresh-hold
   EBREAK =  0.21E-07  absolut break condition
   DEPER  =   0.30     relativ break condition  

   TIME   =   0.40     timestep for ELM

  volume/ion in A,a.u.               =     472.50      3188.59
  Fermi-wavevector in a.u.,A,eV,Ry     =   0.210188  0.397197  0.601091  0.044179
  Thomas-Fermi vector in A             =   0.977592
 
 Write flags
   LWAVE        =      F    write WAVECAR
   LDOWNSAMPLE  =      F    k-point downsampling of WAVECAR
   LCHARG       =      F    write CHGCAR
   LVTOT        =      F    write LOCPOT, total local potential
   LVHAR        =      F    write LOCPOT, Hartree potential only
   LELF         =      F    write electronic localiz. function (ELF)
   LORBIT       =      0    0 simple, 1 ext, 2 COOP (PROOUT), +10 PAW based schemes


 Dipole corrections
   LMONO  =      F    monopole corrections only (constant potential shift)
   LDIPOL =      F    correct potential (dipole corrections)
   IDIPOL =      0    1-x, 2-y, 3-z, 4-all directions 
   EPSILON=  1.0000000 bulk dielectric constant

 Exchange correlation treatment:
   GGA     =    --    GGA type
   LEXCH   =     8    internal setting for exchange type
   VOSKOWN=      0    Vosko Wilk Nusair interpolation
   LHFCALC =     F    Hartree Fock is set to
   LHFONE  =     F    Hartree Fock one center treatment
   AEXX    =    0.0000 exact exchange contribution

 Linear response parameters
   LEPSILON=     F    determine dielectric tensor
   LRPA    =     F    only Hartree local field effects (RPA)
   LNABLA  =     F    use nabla operator in PAW spheres
   LVEL    =     F    velocity operator in full k-point grid
   LINTERFAST=   F  fast interpolation
   KINTER  =     0    interpolate to denser k-point grid
   CSHIFT  =0.1000    complex shift for real part using Kramers Kronig
   OMEGAMAX=  -1.0    maximum frequency
   DEG_THRESHOLD= 0.2000000E-02 threshold for treating states as degnerate
   RTIME   =   -0.100 relaxation time in fs
  (WPLASMAI=    0.000 imaginary part of plasma frequency in eV, 0.658/RTIME)
   DFIELD  = 0.0000000 0.0000000 0.0000000 field for delta impulse in time
 
 Orbital magnetization related:
   ORBITALMAG=     F  switch on orbital magnetization
   LCHIMAG   =     F  perturbation theory with respect to B field
   DQ        =  0.001000  dq finite difference perturbation B field
   LLRAUG    =     F  two centre corrections for induced B field



--------------------------------------------------------------------------------------------------------


 Static calculation
 charge density and potential will be updated during run
 spin polarized calculation
 Variant of blocked Davidson
 Davidson routine will perform the subspace rotation
 perform sub-space diagonalisation
    after iterative eigenvector-optimisation
 modified Broyden-mixing scheme, WC =      100.0
 initial mixing is a Kerker type mixing with AMIX =  0.4000 and BMIX =      1.0000
 Hartree-type preconditioning will be used
 using additional bands            8
 reciprocal scheme for non local part
 calculate Harris-corrections to forces 
   (improved forces if not selfconsistent)
 use gradient corrections 
 use of overlap-Matrix (Vanderbilt PP)
 Gauss-broadening in eV      SIGMA  =   0.20


--------------------------------------------------------------------------------------------------------


  energy-cutoff  :      300.00
  volume of cell :     3780.00
      direct lattice vectors                 reciprocal lattice vectors
    15.000000000  0.000000000  0.000000000     0.066666667 -0.000000000  0.000000000
     0.000000000 15.000000000  0.000000000     0.000000000  0.066666667  0.000000000
     0.000000000  0.000000000 16.800000000    -0.000000000 -0.000000000  0.059523810

  length of vectors
    15.000000000 15.000000000 16.800000000     0.066666667  0.066666667  0.059523810


 
 k-points in units of 2pi/SCALE and weight: Automatic kpoint scheme                 
   0.00000000  0.00000000  0.00000000       1.000
 
 k-points in reciprocal lattice and weights: Automatic kpoint scheme                 
   0.00000000  0.00000000  0.00000000       1.000
 
 position of ions in fractional coordinates (direct lattice) 
   0.00000000  0.00000000  0.00000000
   0.00000000  0.00000000  0.12500000
   0.00000000  0.00000000  0.25000000
   0.00000000  0.00000000  0.37500000
   0.00000000  0.00000000  0.50000000
   0.00000000  0.00000000  0.62500000
   0.00000000  0.00000000  0.75000000
   0.00000000  0.00000000  0.87500000
 
 position of ions in cartesian coordinates  (Angst):
   0.00000000  0.00000000  0.00000000
   0.00000000  0.00000000  2.10000000
   0.00000000  0.00000000  4.20000000
   0.00000000  0.00000000  6.30000000
   0.00000000  0.00000000  8.40000000
   0.00000000  0.00000000 10.50000000
   0.00000000  0.00000000 12.60000000
   0.00000000  0.00000000 14.70000000
 


--------------------------------------------------------------------------------------------------------


 k-point  1 :   0.0000 0.0000 0.0000  plane waves:   44539

 maximum and minimum number of plane-waves per node :     44539    44539

 maximum number of plane-waves:     44539
 maximum index in each direction: 
   IXMAX=   21   IYMAX=   21   IZMAX=   23
   IXMIN=  -21   IYMIN=  -21   IZMIN=  -23


 serial   3D FFT for wavefunctions
 parallel 3D FFT for charge:
    minimum data exchange during FFTs selected (reduces bandwidth)


 total amount of memory used by VASP MPI-rank0   129687. kBytes
=======================================================================

   base      :      30000. kBytes
   nonl-proj :       7482. kBytes
   fftplans  :      21257. kBytes
   grid      :      66650. kBytes
   one-center:         19. kBytes
   wavefun   :       4279. kBytes
 
     INWAV:  cpu time    0.0000: real time    0.0000
 Broyden mixing: mesh for mixing (old mesh)
   NGX = 43   NGY = 43   NGZ = 47
  (NGX  =128   NGY  =128   NGZ  =144)
  gives a total of  86903 points

 initial charge density was supplied:
 charge density of overlapping atoms calculated
 number of electron       8.0000000 magnetization       0.0000000
 keeping initial charge density in first step


--------------------------------------------------------------------------------------------------------


 Maximum index for augmentation-charges           79 (set IRDMAX)


--------------------------------------------------------------------------------------------------------


 First call to EWALD:  gamma=   0.114
 Maximum number of real-space cells 3x 3x 3
 Maximum number of reciprocal cells 3x 3x 3

    FEWALD:  cpu time    0.0017: real time    0.0017


--------------------------------------- Iteration      1(   1)  ---------------------------------------


    POTLOK:  cpu time    0.8640: real time    0.8637
    SETDIJ:  cpu time    0.0110: real time    0.0110
     EDDAV:  cpu time    0.5942: real time    0.5940
       DOS:  cpu time    0.0003: real time    0.0003
    --------------------------------------------
      LOOP:  cpu time    1.4694: real time    1.4691

 eigenvalue-minimisations  :    48
 total energy-change (2. order) : 0.1687284E+02  (-0.7914394E+02)
 number of electron       8.0000000 magnetization       0.0000000
 augmentation part        8.0000000 magnetization       0.0000000

 Free energy of the ion-electron system (eV)
  ---------------------------------------------------
  alpha Z        PSCENC =         0.04124728
  Ewald energy   TEWEN  =        29.60313124
  -Hartree energ DENC   =       -92.08571747
  -exchange      EXHF   =         0.00000000
  -V(xc)+E(xc)   XCENC  =        15.63378789
  PAW double counting   =        17.07221949      -17.14324176
  entropy T*S    EENTRO =        -0.00000000
  eigenvalues    EBANDS =       -35.81478762
  atomic energy  EATOM  =        99.56620307
  Solvation  Ediel_sol  =         0.00000000
  ---------------------------------------------------
  free energy    TOTEN  =        16.87284212 eV

  energy without entropy =       16.87284212  energy(sigma->0) =       16.87284212


--------------------------------------------------------------------------------------------------------




--------------------------------------- Iteration      1(   2)  ---------------------------------------


     EDDAV:  cpu time    0.9557: real time    0.9554
       DOS:  cpu time    0.0003: real time    0.0003
    --------------------------------------------
      LOOP:  cpu time    0.9560: real time    0.9557

 eigenvalue-minimisations  :    92
 total energy-change (2. order) :-0.2364872E+02  (-0.2352628E+02)
 number of electron       8.0000000 magnetization       0.0000000
 augmentation part        8.0000000 magnetization       0.0000000

 Free energy of the ion-electron system (eV)
  ---------------------------------------------------
  alpha Z        PSCENC =         0.04124728
  Ewald energy   TEWEN  =        29.60313124
  -Hartree energ DENC   =       -92.08571747
  -exchange      EXHF   =         0.00000000
  -V(xc)+E(xc)   XCENC  =        15.63378789
  PAW double counting   =        17.07221949      -17.14324176
  entropy T*S    EENTRO =        -0.00662692
  eigenvalues    EBANDS =       -59.45688064
  atomic energy  EATOM  =        99.56620307
  Solvation  Ediel_sol  =         0.00000000
  ---------------------------------------------------
  free energy    TOTEN  =        -6.77587783 eV

  energy without entropy =       -6.76925091  energy(sigma->0) =       -6.77256437


--------------------------------------------------------------------------------------------------------




--------------------------------------- Iteration      1(   3)  ---------------------------------------


     EDDAV:  cpu time    0.7923: real time    0.7919
       DOS:  cpu time    0.0009: real time    0.0009
    --------------------------------------------
      LOOP:  cpu time    0.7932: real time    0.7928

 eigenvalue-minimisations  :    72
 total energy-change (2. order) :-0.2310556E+01  (-0.2111253E+01)
 number of electron       8.0000000 magnetization       0.0000000
 augmentation part        8.0000000 magnetization       0.0000000

 Free energy of the ion-electron system (eV)
  ---------------------------------------------------
  alpha Z        PSCENC =         0.04124728
  Ewald energy   TEWEN  =        29.60313124
  -Hartree energ DENC   =       -92.08571747
  -exchange      EXHF   =         0.00000000
  -V(xc)+E(xc)   XCENC  =        15.63378789
  PAW double counting   =        17.07221949      -17.14324176
  entropy T*S    EENTRO =        -0.22487017
  eigenvalues    EBANDS =       -61.54919293
  atomic energy  EATOM  =        99.56620307
  Solvation  Ediel_sol  =         0.00000000
  ---------------------------------------------------
  free energy    TOTEN  =        -9.08643336 eV

  energy without entropy =       -8.86156319  energy(sigma->0) =       -8.97399827


--------------------------------------------------------------------------------------------------------




--------------------------------------- Iteration      1(   4)  ---------------------------------------


     EDDAV:  cpu time    0.6552: real time    0.6549
       DOS:  cpu time    0.0003: real time    0.0003
    --------------------------------------------
      LOOP:  cpu time    0.6555: real time    0.6552

 eigenvalue-minimisations  :    56
 total energy-change (2. order) :-0.5793945E-01  (-0.5714520E-01)
 number of electron       8.0000000 magnetization       0.0000000
 augmentation part        8.0000000 magnetization       0.0000000

 Free energy of the ion-electron system (eV)
  ---------------------------------------------------
  alpha Z        PSCENC =         0.04124728
  Ewald energy   TEWEN  =        29.60313124
  -Hartree energ DENC   =       -92.08571747
  -exchange      EXHF   =         0.00000000
  -V(xc)+E(xc)   XCENC  =        15.63378789
  PAW double counting   =        17.07221949      -17.14324176
  entropy T*S    EENTRO =        -0.22567578
  eigenvalues    EBANDS =       -61.60632677
  atomic energy  EATOM  =        99.56620307
  Solvation  Ediel_sol  =         0.00000000
  ---------------------------------------------------
  free energy    TOTEN  =        -9.14437281 eV

  energy without entropy =       -8.91869703  energy(sigma->0) =       -9.03153492


--------------------------------------------------------------------------------------------------------




--------------------------------------- Iteration      1(   5)  ---------------------------------------


     EDDAV:  cpu time    0.7765: real time    0.7762
       DOS:  cpu time    0.0003: real time    0.0003
    CHARGE:  cpu time    0.2522: real time    0.2521
    MIXING:  cpu time    0.0168: real time    0.0168
    --------------------------------------------
      LOOP:  cpu time    1.0460: real time    1.0527

 eigenvalue-minimisations  :    72
 total energy-change (2. order) :-0.5792625E-03  (-0.5792052E-03)
 number of electron       8.0000072 magnetization      -0.0000000
 augmentation part        0.0930365 magnetization      -0.0000014

 Broyden mixing:
  rms(total) = 0.13537E+00    rms(broyden)= 0.13107E+00
  rms(prec ) = 0.13984E+00
  weight for this iteration     100.00

 Free energy of the ion-electron system (eV)
  ---------------------------------------------------
  alpha Z        PSCENC =         0.04124728
  Ewald energy   TEWEN  =        29.60313124
  -Hartree energ DENC   =       -92.08571747
  -exchange      EXHF   =         0.00000000
  -V(xc)+E(xc)   XCENC  =        15.63378789
  PAW double counting   =        17.07221949      -17.14324176
  entropy T*S    EENTRO =        -0.22567583
  eigenvalues    EBANDS =       -61.60690597
  atomic energy  EATOM  =        99.56620307
  Solvation  Ediel_sol  =         0.00000000
  ---------------------------------------------------
  free energy    TOTEN  =        -9.14495207 eV

  energy without entropy =       -8.91927624  energy(sigma->0) =       -9.03211415


--------------------------------------------------------------------------------------------------------




--------------------------------------- Iteration      1(   6)  ---------------------------------------


    POTLOK:  cpu time    0.9052: real time    0.9120
    SETDIJ:  cpu time    0.0120: real time    0.0120
     EDDAV:  cpu time    0.5689: real time    0.5687
       DOS:  cpu time    0.0003: real time    0.0003
    CHARGE:  cpu time    0.2418: real time    0.2417
    MIXING:  cpu time    0.0166: real time    0.0165
    --------------------------------------------
      LOOP:  cpu time    1.7447: real time    1.7439

 eigenvalue-minimisations  :    48
 total energy-change (2. order) :-0.3260704E-01  (-0.1055058E-02)
 number of electron       8.0000072 magnetization      -0.0000000
 augmentation part        0.0931808 magnetization      -0.0000006

 Broyden mixing:
  rms(total) = 0.81816E-01    rms(broyden)= 0.81542E-01
  rms(prec ) = 0.87306E-01
  weight for this iteration     100.00

 eigenvalues of (default mixing * dielectric matrix)
  average eigenvalue GAMMA=   2.6188
  2.6188

 Free energy of the ion-electron system (eV)
  ---------------------------------------------------
  alpha Z        PSCENC =         0.04124728
  Ewald energy   TEWEN  =        29.60313124
  -Hartree energ DENC   =       -91.66168876
  -exchange      EXHF   =         0.00000000
  -V(xc)+E(xc)   XCENC  =        15.52828874
  PAW double counting   =        17.83565682      -17.90086251
  entropy T*S    EENTRO =        -0.22567583
  eigenvalues    EBANDS =       -61.96385917
  atomic energy  EATOM  =        99.56620307
  Solvation  Ediel_sol  =         0.00000000
  ---------------------------------------------------
  free energy    TOTEN  =        -9.17755911 eV

  energy without entropy =       -8.95188328  energy(sigma->0) =       -9.06472120


--------------------------------------------------------------------------------------------------------




--------------------------------------- Iteration      1(   7)  ---------------------------------------


    POTLOK:  cpu time    0.9146: real time    0.9141
    SETDIJ:  cpu time    0.0122: real time    0.0122
     EDDAV:  cpu time    0.7077: real time    0.7073
       DOS:  cpu time    0.0003: real time    0.0003
    CHARGE:  cpu time    0.2433: real time    0.2433
    MIXING:  cpu time    0.0183: real time    0.0183
    --------------------------------------------
      LOOP:  cpu time    1.8964: real time    1.8955

 eigenvalue-minimisations  :    64
 total energy-change (2. order) :-0.3244772E-01  (-0.1974171E-02)
 number of electron       8.0000072 magnetization      -0.0000000
 augmentation part        0.0932769 magnetization       0.0000001

 Broyden mixing:
  rms(total) = 0.59909E-02    rms(broyden)= 0.58531E-02
  rms(prec ) = 0.68048E-02
  weight for this iteration     100.00

 eigenvalues of (default mixing * dielectric matrix)
  average eigenvalue GAMMA=   2.4112
  2.0405  2.7818

 Free energy of the ion-electron system (eV)
  ---------------------------------------------------
  alpha Z        PSCENC =         0.04124728
  Ewald energy   TEWEN  =        29.60313124
  -Hartree energ DENC   =       -91.08914613
  -exchange      EXHF   =         0.00000000
  -V(xc)+E(xc)   XCENC  =        15.36456145
  PAW double counting   =        19.32168316      -19.37861299
  entropy T*S    EENTRO =        -0.22567583
  eigenvalues    EBANDS =       -62.41339809
  atomic energy  EATOM  =        99.56620307
  Solvation  Ediel_sol  =         0.00000000
  ---------------------------------------------------
  free energy    TOTEN  =        -9.21000683 eV

  energy without entropy =       -8.98433100  energy(sigma->0) =       -9.09716892


--------------------------------------------------------------------------------------------------------




--------------------------------------- Iteration      1(   8)  ---------------------------------------


    POTLOK:  cpu time    0.9102: real time    0.9097
    SETDIJ:  cpu time    0.0118: real time    0.0118
     EDDAV:  cpu time    0.5710: real time    0.5707
       DOS:  cpu time    0.0003: real time    0.0003
    CHARGE:  cpu time    0.2420: real time    0.2418
    MIXING:  cpu time    0.0195: real time    0.0195
    --------------------------------------------
      LOOP:  cpu time    1.7548: real time    1.7538

 eigenvalue-minimisations  :    48
 total energy-change (2. order) :-0.1061452E-02  (-0.3156405E-04)
 number of electron       8.0000072 magnetization      -0.0000000
 augmentation part        0.0932859 magnetization      -0.0000007

 Broyden mixing:
  rms(total) = 0.17770E-02    rms(broyden)= 0.17613E-02
  rms(prec ) = 0.22175E-02
  weight for this iteration     100.00

 eigenvalues of (default mixing * dielectric matrix)
  average eigenvalue GAMMA=   2.1682
  0.9704  2.9775  2.5567

 Free energy of the ion-electron system (eV)
  ---------------------------------------------------
  alpha Z        PSCENC =         0.04124728
  Ewald energy   TEWEN  =        29.60313124
  -Hartree energ DENC   =       -91.17499052
  -exchange      EXHF   =         0.00000000
  -V(xc)+E(xc)   XCENC  =        15.37406642
  PAW double counting   =        19.31936718      -19.37664035
  entropy T*S    EENTRO =        -0.22567583
  eigenvalues    EBANDS =       -62.33777677
  atomic energy  EATOM  =        99.56620307
  Solvation  Ediel_sol  =         0.00000000
  ---------------------------------------------------
  free energy    TOTEN  =        -9.21106829 eV

  energy without entropy =       -8.98539245  energy(sigma->0) =       -9.09823037


--------------------------------------------------------------------------------------------------------




--------------------------------------- Iteration      1(   9)  ---------------------------------------


    POTLOK:  cpu time    0.9110: real time    0.9106
    SETDIJ:  cpu time    0.0119: real time    0.0119
     EDDAV:  cpu time    0.6361: real time    0.6357
       DOS:  cpu time    0.0003: real time    0.0003
    CHARGE:  cpu time    0.2417: real time    0.2417
    MIXING:  cpu time    0.0204: real time    0.0204
    --------------------------------------------
      LOOP:  cpu time    1.8214: real time    1.8205

 eigenvalue-minimisations  :    56
 total energy-change (2. order) :-0.9895722E-04  (-0.4169555E-05)
 number of electron       8.0000072 magnetization       0.0000000
 augmentation part        0.0932738 magnetization       0.0000003

 Broyden mixing:
  rms(total) = 0.43907E-03    rms(broyden)= 0.43627E-03
  rms(prec ) = 0.85476E-03
  weight for this iteration     100.00

 eigenvalues of (default mixing * dielectric matrix)
  average eigenvalue GAMMA=   1.8738
  3.0317  2.5507  1.0194  0.8935

 Free energy of the ion-electron system (eV)
  ---------------------------------------------------
  alpha Z        PSCENC =         0.04124728
  Ewald energy   TEWEN  =        29.60313124
  -Hartree energ DENC   =       -91.23075981
  -exchange      EXHF   =         0.00000000
  -V(xc)+E(xc)   XCENC  =        15.38155624
  PAW double counting   =        19.28950437      -19.34700041
  entropy T*S    EENTRO =        -0.22567583
  eigenvalues    EBANDS =       -62.28937340
  atomic energy  EATOM  =        99.56620307
  Solvation  Ediel_sol  =         0.00000000
  ---------------------------------------------------
  free energy    TOTEN  =        -9.21116724 eV

  energy without entropy =       -8.98549141  energy(sigma->0) =       -9.09832933


--------------------------------------------------------------------------------------------------------




--------------------------------------- Iteration      1(  10)  ---------------------------------------


    POTLOK:  cpu time    0.9187: real time    0.9183
    SETDIJ:  cpu time    0.0120: real time    0.0120
     EDDAV:  cpu time    0.6358: real time    0.6354
       DOS:  cpu time    0.0003: real time    0.0003
    CHARGE:  cpu time    0.2397: real time    0.2396
    MIXING:  cpu time    0.0228: real time    0.0228
    --------------------------------------------
      LOOP:  cpu time    1.8293: real time    1.8285

 eigenvalue-minimisations  :    56
 total energy-change (2. order) :-0.7884424E-04  (-0.8396916E-06)
 number of electron       8.0000072 magnetization      -0.0000000
 augmentation part        0.0932655 magnetization      -0.0000013

 Broyden mixing:
  rms(total) = 0.28514E-03    rms(broyden)= 0.28476E-03
  rms(prec ) = 0.51224E-03
  weight for this iteration     100.00

 eigenvalues of (default mixing * dielectric matrix)
  average eigenvalue GAMMA=   2.2293
  3.8084  2.9437  2.6995  1.0089  0.6862

 Free energy of the ion-electron system (eV)
  ---------------------------------------------------
  alpha Z        PSCENC =         0.04124728
  Ewald energy   TEWEN  =        29.60313124
  -Hartree energ DENC   =       -91.25779261
  -exchange      EXHF   =         0.00000000
  -V(xc)+E(xc)   XCENC  =        15.38374486
  PAW double counting   =        19.26921218      -19.32660395
  entropy T*S    EENTRO =        -0.22567583
  eigenvalues    EBANDS =       -62.26471232
  atomic energy  EATOM  =        99.56620307
  Solvation  Ediel_sol  =         0.00000000
  ---------------------------------------------------
  free energy    TOTEN  =        -9.21124609 eV

  energy without entropy =       -8.98557025  energy(sigma->0) =       -9.09840817


--------------------------------------------------------------------------------------------------------




--------------------------------------- Iteration      1(  11)  ---------------------------------------


    POTLOK:  cpu time    0.9054: real time    0.9051
    SETDIJ:  cpu time    0.0120: real time    0.0120
     EDDAV:  cpu time    0.5725: real time    0.5723
       DOS:  cpu time    0.0003: real time    0.0003
    CHARGE:  cpu time    0.2436: real time    0.2435
    MIXING:  cpu time    0.0255: real time    0.0255
    --------------------------------------------
      LOOP:  cpu time    1.7594: real time    1.7588

 eigenvalue-minimisations  :    48
 total energy-change (2. order) :-0.3501000E-04  (-0.4734441E-06)
 number of electron       8.0000072 magnetization      -0.0000000
 augmentation part        0.0932601 magnetization      -0.0000000

 Broyden mixing:
  rms(total) = 0.16930E-03    rms(broyden)= 0.16919E-03
  rms(prec ) = 0.30481E-03
  weight for this iteration     100.00

 eigenvalues of (default mixing * dielectric matrix)
  average eigenvalue GAMMA=   2.1003
  4.1030  3.0274  2.5681  0.9989  1.2330  0.6710

 Free energy of the ion-electron system (eV)
  ---------------------------------------------------
  alpha Z        PSCENC =         0.04124728
  Ewald energy   TEWEN  =        29.60313124
  -Hartree energ DENC   =       -91.27836266
  -exchange      EXHF   =         0.00000000
  -V(xc)+E(xc)   XCENC  =        15.38556019
  PAW double counting   =        19.25655194      -19.31391098
  entropy T*S    EENTRO =        -0.22567583
  eigenvalues    EBANDS =       -62.24602534
  atomic energy  EATOM  =        99.56620307
  Solvation  Ediel_sol  =         0.00000000
  ---------------------------------------------------
  free energy    TOTEN  =        -9.21128110 eV

  energy without entropy =       -8.98560526  energy(sigma->0) =       -9.09844318


--------------------------------------------------------------------------------------------------------




--------------------------------------- Iteration      1(  12)  ---------------------------------------


    POTLOK:  cpu time    0.9133: real time    0.9130
    SETDIJ:  cpu time    0.0118: real time    0.0118
     EDDAV:  cpu time    0.4411: real time    0.4409
       DOS:  cpu time    0.0003: real time    0.0003
    CHARGE:  cpu time    0.2390: real time    0.2390
    MIXING:  cpu time    0.0247: real time    0.0247
    --------------------------------------------
      LOOP:  cpu time    1.6303: real time    1.6297

 eigenvalue-minimisations  :    32
 total energy-change (2. order) :-0.2937025E-04  (-0.5730066E-07)
 number of electron       8.0000072 magnetization      -0.0000000
 augmentation part        0.0932594 magnetization       0.0000000

 Broyden mixing:
  rms(total) = 0.12468E-03    rms(broyden)= 0.12467E-03
  rms(prec ) = 0.22524E-03
  weight for this iteration     100.00

 eigenvalues of (default mixing * dielectric matrix)
  average eigenvalue GAMMA=   2.1742
  4.4907  3.0720  2.5698  2.5698  1.0056  0.8499  0.6614

 Free energy of the ion-electron system (eV)
  ---------------------------------------------------
  alpha Z        PSCENC =         0.04124728
  Ewald energy   TEWEN  =        29.60313124
  -Hartree energ DENC   =       -91.28525387
  -exchange      EXHF   =         0.00000000
  -V(xc)+E(xc)   XCENC  =        15.38612989
  PAW double counting   =        19.25990473      -19.31730951
  entropy T*S    EENTRO =        -0.22567583
  eigenvalues    EBANDS =       -62.23968746
  atomic energy  EATOM  =        99.56620307
  Solvation  Ediel_sol  =         0.00000000
  ---------------------------------------------------
  free energy    TOTEN  =        -9.21131047 eV

  energy without entropy =       -8.98563463  energy(sigma->0) =       -9.09847255


--------------------------------------------------------------------------------------------------------




--------------------------------------- Iteration      1(  13)  ---------------------------------------


    POTLOK:  cpu time    0.9046: real time    0.9042
    SETDIJ:  cpu time    0.0119: real time    0.0119
     EDDAV:  cpu time    0.5745: real time    0.5743
       DOS:  cpu time    0.0003: real time    0.0003
    CHARGE:  cpu time    0.2435: real time    0.2434
    MIXING:  cpu time    0.0263: real time    0.0263
    --------------------------------------------
      LOOP:  cpu time    1.7612: real time    1.7604

 eigenvalue-minimisations  :    48
 total energy-change (2. order) :-0.3218321E-04  (-0.2492342E-06)
 number of electron       8.0000072 magnetization      -0.0000000
 augmentation part        0.0932584 magnetization      -0.0000002

 Broyden mixing:
  rms(total) = 0.49853E-04    rms(broyden)= 0.49837E-04
  rms(prec ) = 0.92908E-04
  weight for this iteration     100.00

 eigenvalues of (default mixing * dielectric matrix)
  average eigenvalue GAMMA=   2.2802
  5.8865  3.4127  2.9663  2.5677  1.0180  1.0180  0.7239  0.6488

 Free energy of the ion-electron system (eV)
  ---------------------------------------------------
  alpha Z        PSCENC =         0.04124728
  Ewald energy   TEWEN  =        29.60313124
  -Hartree energ DENC   =       -91.29097412
  -exchange      EXHF   =         0.00000000
  -V(xc)+E(xc)   XCENC  =        15.38594475
  PAW double counting   =        19.27126870      -19.32869528
  entropy T*S    EENTRO =        -0.22567583
  eigenvalues    EBANDS =       -62.23379246
  atomic energy  EATOM  =        99.56620307
  Solvation  Ediel_sol  =         0.00000000
  ---------------------------------------------------
  free energy    TOTEN  =        -9.21134265 eV

  energy without entropy =       -8.98566682  energy(sigma->0) =       -9.09850473


--------------------------------------------------------------------------------------------------------




--------------------------------------- Iteration      1(  14)  ---------------------------------------


    POTLOK:  cpu time    0.9186: real time    0.9182
    SETDIJ:  cpu time    0.0117: real time    0.0117
     EDDAV:  cpu time    0.4380: real time    0.4378
       DOS:  cpu time    0.0003: real time    0.0003
    CHARGE:  cpu time    0.2369: real time    0.2655
    MIXING:  cpu time    0.0310: real time    0.0310
    --------------------------------------------
      LOOP:  cpu time    1.6366: real time    1.6647

 eigenvalue-minimisations  :    32
 total energy-change (2. order) :-0.9266830E-05  (-0.1144820E-07)
 number of electron       8.0000072 magnetization      -0.0000000
 augmentation part        0.0932583 magnetization      -0.0000000

 Broyden mixing:
  rms(total) = 0.38599E-04    rms(broyden)= 0.38597E-04
  rms(prec ) = 0.69490E-04
  weight for this iteration     100.00

 eigenvalues of (default mixing * dielectric matrix)
  average eigenvalue GAMMA=   2.3106
  6.5063  3.6308  2.9520  2.5545  1.8038  0.9720  1.0293  0.7012  0.6460

 Free energy of the ion-electron system (eV)
  ---------------------------------------------------
  alpha Z        PSCENC =         0.04124728
  Ewald energy   TEWEN  =        29.60313124
  -Hartree energ DENC   =       -91.29163760
  -exchange      EXHF   =         0.00000000
  -V(xc)+E(xc)   XCENC  =        15.38586914
  PAW double counting   =        19.27064311      -19.32806235
  entropy T*S    EENTRO =        -0.22567583
  eigenvalues    EBANDS =       -62.23306997
  atomic energy  EATOM  =        99.56620307
  Solvation  Ediel_sol  =         0.00000000
  ---------------------------------------------------
  free energy    TOTEN  =        -9.21135192 eV

  energy without entropy =       -8.98567608  energy(sigma->0) =       -9.09851400


--------------------------------------------------------------------------------------------------------




--------------------------------------- Iteration      1(  15)  ---------------------------------------


    POTLOK:  cpu time    0.8936: real time    0.8932
    SETDIJ:  cpu time    0.0118: real time    0.0118
     EDDAV:  cpu time    0.4423: real time    0.4422
       DOS:  cpu time    0.0003: real time    0.0003
    CHARGE:  cpu time    0.2363: real time    0.2363
    MIXING:  cpu time    0.0301: real time    0.0301
    --------------------------------------------
      LOOP:  cpu time    1.6145: real time    1.6140

 eigenvalue-minimisations  :    32
 total energy-change (2. order) :-0.2585277E-04  (-0.8829364E-07)
 number of electron       8.0000072 magnetization      -0.0000000
 augmentation part        0.0932580 magnetization      -0.0000001

 Broyden mixing:
  rms(total) = 0.17473E-04    rms(broyden)= 0.17470E-04
  rms(prec ) = 0.26652E-04
  weight for this iteration     100.00

 eigenvalues of (default mixing * dielectric matrix)
  average eigenvalue GAMMA=   2.5026
  7.8401  4.5200  3.0083  2.9214  2.5556  1.0037  1.0636  0.8065  0.6638  0.6433

 Free energy of the ion-electron system (eV)
  ---------------------------------------------------
  alpha Z        PSCENC =         0.04124728
  Ewald energy   TEWEN  =        29.60313124
  -Hartree energ DENC   =       -91.29282146
  -exchange      EXHF   =         0.00000000
  -V(xc)+E(xc)   XCENC  =        15.38592372
  PAW double counting   =        19.26421585      -19.32161722
  entropy T*S    EENTRO =        -0.22567583
  eigenvalues    EBANDS =       -62.23198442
  atomic energy  EATOM  =        99.56620307
  Solvation  Ediel_sol  =         0.00000000
  ---------------------------------------------------
  free energy    TOTEN  =        -9.21137777 eV

  energy without entropy =       -8.98570194  energy(sigma->0) =       -9.09853985


--------------------------------------------------------------------------------------------------------




--------------------------------------- Iteration      1(  16)  ---------------------------------------


    POTLOK:  cpu time    0.9135: real time    0.9134
    SETDIJ:  cpu time    0.0119: real time    0.0119
     EDDAV:  cpu time    0.4433: real time    0.4432
       DOS:  cpu time    0.0003: real time    0.0003
    CHARGE:  cpu time    0.2390: real time    0.2389
    MIXING:  cpu time    0.0323: real time    0.0323
    --------------------------------------------
      LOOP:  cpu time    1.6403: real time    1.6401

 eigenvalue-minimisations  :    32
 total energy-change (2. order) :-0.5074369E-05  (-0.1450372E-07)
 number of electron       8.0000072 magnetization      -0.0000000
 augmentation part        0.0932577 magnetization      -0.0000000

 Broyden mixing:
  rms(total) = 0.13110E-04    rms(broyden)= 0.13107E-04
  rms(prec ) = 0.18072E-04
  weight for this iteration     100.00

 eigenvalues of (default mixing * dielectric matrix)
  average eigenvalue GAMMA=   2.4997
  8.2930  4.9583  3.1088  2.8739  2.5529  1.6774  1.0075  0.9620  0.7614  0.6627
  0.6387

 Free energy of the ion-electron system (eV)
  ---------------------------------------------------
  alpha Z        PSCENC =         0.04124728
  Ewald energy   TEWEN  =        29.60313124
  -Hartree energ DENC   =       -91.29310002
  -exchange      EXHF   =         0.00000000
  -V(xc)+E(xc)   XCENC  =        15.38594015
  PAW double counting   =        19.26377655      -19.32117753
  entropy T*S    EENTRO =        -0.22567583
  eigenvalues    EBANDS =       -62.23172774
  atomic energy  EATOM  =        99.56620307
  Solvation  Ediel_sol  =         0.00000000
  ---------------------------------------------------
  free energy    TOTEN  =        -9.21138284 eV

  energy without entropy =       -8.98570701  energy(sigma->0) =       -9.09854493


--------------------------------------------------------------------------------------------------------




--------------------------------------- Iteration      1(  17)  ---------------------------------------


    POTLOK:  cpu time    0.9089: real time    0.9087
    SETDIJ:  cpu time    0.0118: real time    0.0118
     EDDAV:  cpu time    0.4433: real time    0.4432
       DOS:  cpu time    0.0003: real time    0.0003
    CHARGE:  cpu time    0.2428: real time    0.2428
    MIXING:  cpu time    0.0363: real time    0.0363
    --------------------------------------------
      LOOP:  cpu time    1.6434: real time    1.6432

 eigenvalue-minimisations  :    32
 total energy-change (2. order) :-0.4295470E-05  (-0.7294301E-08)
 number of electron       8.0000072 magnetization      -0.0000000
 augmentation part        0.0932575 magnetization      -0.0000000

 Broyden mixing:
  rms(total) = 0.65581E-05    rms(broyden)= 0.65559E-05
  rms(prec ) = 0.85464E-05
  weight for this iteration     100.00

 eigenvalues of (default mixing * dielectric matrix)
  average eigenvalue GAMMA=   2.5822
  9.0486  5.5247  3.2181  3.0413  2.7585  2.5644  0.9971  0.9971  0.8594  0.6332
  0.6720  0.6720

 Free energy of the ion-electron system (eV)
  ---------------------------------------------------
  alpha Z        PSCENC =         0.04124728
  Ewald energy   TEWEN  =        29.60313124
  -Hartree energ DENC   =       -91.29280544
  -exchange      EXHF   =         0.00000000
  -V(xc)+E(xc)   XCENC  =        15.38587718
  PAW double counting   =        19.26552967      -19.32293588
  entropy T*S    EENTRO =        -0.22567583
  eigenvalues    EBANDS =       -62.23195843
  atomic energy  EATOM  =        99.56620307
  Solvation  Ediel_sol  =         0.00000000
  ---------------------------------------------------
  free energy    TOTEN  =        -9.21138714 eV

  energy without entropy =       -8.98571131  energy(sigma->0) =       -9.09854922


--------------------------------------------------------------------------------------------------------




--------------------------------------- Iteration      1(  18)  ---------------------------------------


    POTLOK:  cpu time    0.9041: real time    0.9040
    SETDIJ:  cpu time    0.0117: real time    0.0117
     EDDAV:  cpu time    0.4371: real time    0.4370
       DOS:  cpu time    0.0003: real time    0.0003
    CHARGE:  cpu time    0.2410: real time    0.2410
    MIXING:  cpu time    0.0370: real time    0.0370
    --------------------------------------------
      LOOP:  cpu time    1.6312: real time    1.6309

 eigenvalue-minimisations  :    32
 total energy-change (2. order) :-0.1263315E-05  (-0.2475050E-08)
 number of electron       8.0000072 magnetization      -0.0000000
 augmentation part        0.0932575 magnetization       0.0000000

 Broyden mixing:
  rms(total) = 0.19980E-05    rms(broyden)= 0.19967E-05
  rms(prec ) = 0.31938E-05
  weight for this iteration     100.00

 eigenvalues of (default mixing * dielectric matrix)
  average eigenvalue GAMMA=   2.5339
  9.2891  5.6525  3.5759  3.1207  2.7632  2.5625  1.2015  1.0306  0.9806  0.8031
  0.6653  0.6653  0.6300

 Free energy of the ion-electron system (eV)
  ---------------------------------------------------
  alpha Z        PSCENC =         0.04124728
  Ewald energy   TEWEN  =        29.60313124
  -Hartree energ DENC   =       -91.29279051
  -exchange      EXHF   =         0.00000000
  -V(xc)+E(xc)   XCENC  =        15.38586053
  PAW double counting   =        19.26594300      -19.32335009
  entropy T*S    EENTRO =        -0.22567583
  eigenvalues    EBANDS =       -62.23195710
  atomic energy  EATOM  =        99.56620307
  Solvation  Ediel_sol  =         0.00000000
  ---------------------------------------------------
  free energy    TOTEN  =        -9.21138840 eV

  energy without entropy =       -8.98571257  energy(sigma->0) =       -9.09855049


--------------------------------------------------------------------------------------------------------




--------------------------------------- Iteration      1(  19)  ---------------------------------------


    POTLOK:  cpu time    0.9107: real time    0.9105
    SETDIJ:  cpu time    0.0119: real time    0.0119
     EDDAV:  cpu time    0.4401: real time    0.4401
       DOS:  cpu time    0.0003: real time    0.0003
    --------------------------------------------
      LOOP:  cpu time    1.3629: real time    1.3627

 eigenvalue-minimisations  :    32
 total energy-change (2. order) :-0.4048402E-06  (-0.3662075E-09)
 number of electron       8.0000072 magnetization      -0.0000000
 augmentation part        0.0932575 magnetization       0.0000000

 Free energy of the ion-electron system (eV)
  ---------------------------------------------------
  alpha Z        PSCENC =         0.04124728
  Ewald energy   TEWEN  =        29.60313124
  -Hartree energ DENC   =       -91.29284675
  -exchange      EXHF   =         0.00000000
  -V(xc)+E(xc)   XCENC  =        15.38586273
  PAW double counting   =        19.26570626      -19.32311256
  entropy T*S    EENTRO =        -0.22567583
  eigenvalues    EBANDS =       -62.23190424
  atomic energy  EATOM  =        99.56620307
  Solvation  Ediel_sol  =         0.00000000
  ---------------------------------------------------
  free energy    TOTEN  =        -9.21138881 eV

  energy without entropy =       -8.98571297  energy(sigma->0) =       -9.09855089


--------------------------------------------------------------------------------------------------------




 average (electrostatic) potential at core
  the test charge radii are     0.5201
  (the norm of the test charge is              1.0001)
       1 -42.4256       2 -42.4256       3 -42.4256       4 -42.4256       5 -42.4256
       6 -42.4256       7 -42.4256       8 -42.4256
 
 
 
 E-fermi :  -6.6835     XC(G=0):  -0.4787     alpha+bet : -0.0584


 spin component 1

 k-point     1 :       0.0000    0.0000    0.0000
  band No.  band energies     occupation 
      1      -8.4470      1.00000
      2      -7.9927      1.00000
      3      -7.9927      1.00000
      4      -6.6835      0.50000
      5      -6.6835      0.50000
      6      -4.8142      0.00000
      7      -4.8142      0.00000
      8      -3.6374      0.00000
      9      -0.1194      0.00000
     10      -0.1192      0.00000
     11      -0.1192      0.00000
     12       0.4094      0.00000

 spin component 2

 k-point     1 :       0.0000    0.0000    0.0000
  band No.  band energies     occupation 
      1      -8.4470      1.00000
      2      -7.9927      1.00000
      3      -7.9927      1.00000
      4      -6.6835      0.50000
      5      -6.6835      0.50000
      6      -4.8142      0.00000
      7      -4.8142      0.00000
      8      -3.6374      0.00000
      9      -0.1194      0.00000
     10      -0.1193      0.00000
     11      -0.1193      0.00000
     12       0.4094      0.00000


--------------------------------------------------------------------------------------------------------


 soft charge-density along one line, spin component           1
         0         1         2         3         4         5         6         7         8         9
 total charge-density along one line
 
 soft charge-density along one line, spin component           2
         0         1         2         3         4         5         6         7         8         9
 total charge-density along one line
 
 pseudopotential strength for first ion, spin component:           1
 -2.368  -4.082   0.000  -0.000  -0.000
 -4.082  -6.953   0.000  -0.000  -0.000
  0.000   0.000  -0.347  -0.000  -0.000
 -0.000  -0.000  -0.000  -0.348   0.000
 -0.000  -0.000  -0.000   0.000  -0.347
 pseudopotential strength for first ion, spin component:           2
 -2.368  -4.082   0.000  -0.000  -0.000
 -4.082  -6.953   0.000  -0.000  -0.000
  0.000   0.000  -0.347  -0.000  -0.000
 -0.000  -0.000  -0.000  -0.348   0.000
 -0.000  -0.000  -0.000   0.000  -0.347
 total augmentation occupancy for first ion, spin component:           1
  1.534  -0.204   0.000  -0.000   0.000
 -0.204   0.028  -0.000   0.000  -0.000
  0.000  -0.000   0.000  -0.000   0.000
 -0.000   0.000  -0.000   0.001   0.000
  0.000  -0.000   0.000   0.000   0.000
 total augmentation occupancy for first ion, spin component:           2
 -0.000   0.000  -0.000  -0.000  -0.000
  0.000  -0.000   0.000   0.000   0.000
 -0.000   0.000   0.000  -0.000   0.000
 -0.000   0.000  -0.000   0.000   0.000
 -0.000   0.000   0.000   0.000   0.000


------------------------ aborting loop because EDIFF is reached ----------------------------------------


    CHARGE:  cpu time    0.2397: real time    0.2397
    FORLOC:  cpu time    0.0327: real time    0.0327
    FORNL :  cpu time    0.0808: real time    0.0808
    STRESS:  cpu time    0.3055: real time    0.3055
    FORHAR:  cpu time    0.0965: real time    0.0965
    MIXING:  cpu time    0.0437: real time    0.0437
    OFIELD:  cpu time    0.0001: real time    0.0001

  FORCE on cell =-STRESS in cart. coord.  units (eV):
  Direction    XX          YY          ZZ          XY          YZ          ZX
  --------------------------------------------------------------------------------------
  Alpha Z     0.04125     0.04125     0.04125
  Ewald     -27.42816   -27.42816    84.45945     0.00000    -0.00000    -0.00000
  Hartree     1.57384     1.57384    88.14520    -0.00000    -0.00000    -0.00000
  E(xc)     -17.64512   -17.64512   -16.35900     0.00000     0.00000    -0.00000
  Local      -3.36444    -3.36444  -202.75897     0.00000    -0.00000    -0.00000
  n-local   -12.69637   -12.69637   -12.93712    -0.00000     0.00000     0.00000
  augment     0.60865     0.60865     0.61087     0.00000     0.00000     0.00000
  Kinetic    58.06218    58.06218    36.72124     0.00000     0.00000     0.00000
  Fock        0.00000     0.00000     0.00000     0.00000     0.00000     0.00000
  -------------------------------------------------------------------------------------
  Total      -0.84817    -0.84817   -22.07709    -0.00000    -0.00000    -0.00000
  in kB      -0.35950    -0.35950    -9.35751    -0.00000    -0.00000    -0.00000
  external pressure =       -3.36 kB  Pullay stress =        0.00 kB


 VOLUME and BASIS-vectors are now :
 -----------------------------------------------------------------------------
  energy-cutoff  :      300.00
  volume of cell :     3780.00
      direct lattice vectors                 reciprocal lattice vectors
    15.000000000  0.000000000  0.000000000     0.066666667 -0.000000000  0.000000000
     0.000000000 15.000000000  0.000000000     0.000000000  0.066666667  0.000000000
     0.000000000  0.000000000 16.800000000    -0.000000000 -0.000000000  0.059523810

  length of vectors
    15.000000000 15.000000000 16.800000000     0.066666667  0.066666667  0.059523810


 FORCES acting on ions
    electron-ion (+dipol)            ewald-force                    non-local-force                 convergence-correction
 -----------------------------------------------------------------------------------------------
   0.113E-16 -.720E-17 -.163E-16   -.235E-18 0.412E-18 0.000E+00   -.628E-25 -.646E-25 -.969E-26   -.197E-15 -.200E-15 0.198E-15
   0.124E-16 -.571E-17 0.264E-14   -.289E-18 0.453E-18 -.111E-15   0.356E-25 -.103E-24 0.129E-25   -.193E-15 -.205E-15 -.747E-16
   0.131E-16 -.571E-17 0.533E-14   0.144E-18 0.100E-18 0.222E-15   0.141E-25 0.113E-25 -.129E-25   -.193E-15 -.206E-15 -.232E-15
   0.196E-16 0.939E-18 0.895E-14   0.266E-18 0.534E-18 -.622E-16   0.386E-25 0.388E-25 0.452E-25   -.184E-15 -.200E-15 -.210E-17
   0.198E-16 0.113E-17 0.116E-13   -.743E-18 0.770E-18 -.555E-16   0.344E-25 -.258E-25 0.226E-25   -.188E-15 -.206E-15 0.749E-16
   0.236E-16 0.590E-17 0.159E-13   -.621E-18 0.120E-17 0.222E-15   0.655E-26 -.129E-25 -.194E-25   -.194E-15 -.203E-15 -.596E-16
   0.261E-16 0.836E-17 0.179E-13   -.187E-18 0.852E-18 0.000E+00   -.508E-25 0.105E-25 0.969E-26   -.200E-15 -.201E-15 -.745E-16
   0.223E-16 0.420E-17 0.199E-13   -.241E-18 0.892E-18 0.444E-15   0.591E-26 -.129E-25 0.452E-25   -.194E-15 -.201E-15 0.187E-15
 -----------------------------------------------------------------------------------------------
   0.148E-15 0.191E-17 0.823E-13   -.191E-17 0.522E-17 0.659E-15   0.216E-25 -.159E-24 0.937E-25   -.154E-14 -.162E-14 0.177E-16
 
 
 POSITION                                       TOTAL-FORCE (eV/Angst)
 -----------------------------------------------------------------------------------
      0.00000      0.00000      0.00000         0.000000      0.000000      0.000000
      0.00000      0.00000      2.10000        -0.000000     -0.000000      0.000000
      0.00000      0.00000      4.20000        -0.000000      0.000000      0.000000
      0.00000      0.00000      6.30000         0.000000      0.000000     -0.000000
      0.00000      0.00000      8.40000         0.000000     -0.000000      0.000000
      0.00000      0.00000     10.50000        -0.000000      0.000000      0.000000
      0.00000      0.00000     12.60000         0.000000      0.000000     -0.000000
      0.00000      0.00000     14.70000        -0.000000     -0.000000      0.000000
 -----------------------------------------------------------------------------------
    total drift:                               -0.000000     -0.000000      0.000000


--------------------------------------------------------------------------------------------------------



  FREE ENERGIE OF THE ION-ELECTRON SYSTEM (eV)
  ---------------------------------------------------
  free  energy   TOTEN  =        -9.21138881 eV

  energy  without entropy=       -8.98571297  energy(sigma->0) =       -9.09855089
 


--------------------------------------------------------------------------------------------------------


    POTLOK:  cpu time    0.9207: real time    0.9205


--------------------------------------------------------------------------------------------------------


     LOOP+:  cpu time   30.3809: real time   30.4153
    4ORBIT:  cpu time    0.0000: real time    0.0000

 total amount of memory used by VASP MPI-rank0   129687. kBytes
=======================================================================

   base      :      30000. kBytes
   nonl-proj :       7482. kBytes
   fftplans  :      21257. kBytes
   grid      :      66650. kBytes
   one-center:         19. kBytes
   wavefun   :       4279. kBytes
 
  
  
 General timing and accounting informations for this job:
 ========================================================
  
                  Total CPU time used (sec):       31.486
                            User time (sec):       30.167
                          System time (sec):        1.319
                         Elapsed time (sec):       31.863
  
                   Maximum memory used (kb):      316996.
                   Average memory used (kb):           0.
  
                          Minor page faults:       402023
                          Major page faults:            0
                 Voluntary context switches:         1136
