<?xml version="1.0" encoding="ISO-8859-1"?>
<modeling>
 <generator>
  <i name="program" type="string">vasp </i>
  <i name="version" type="string">5.4.4.18Apr17-6-g9f103f2a35  </i>
  <i name="subversion" type="string">(build Aug 24 2024 05:40:03) complex            parallel </i>
  <i name="platform" type="string">IFC22_IMPI </i>
  <i name="date" type="string">2024 11 22 </i>
  <i name="time" type="string">21:44:23 </i>
 </generator>
 <incar>
  <i type="string" name="PREC">normal</i>
  <i type="int" name="ISPIN">     2</i>
  <i type="int" name="ICHARG">     2</i>
  <i type="int" name="NELM">   100</i>
  <i name="EDIFF">      0.00000100</i>
  <i type="int" name="NSW">     0</i>
  <i name="ENCUT">    300.00000000</i>
  <i name="NUPDOWN">      0.00000000</i>
  <i type="int" name="ISMEAR">     0</i>
  <i name="SIGMA">      0.20000000</i>
  <i type="logical" name="LWAVE"> F  </i>
  <i type="logical" name="LCHARG"> F  </i>
  <v type="int" name="KPOINT_BSE">    -1     0     0     0</v>
  <i type="int" name="NELM">   100</i>
 </incar>
 <structure name="primitive_cell" >
  <crystal>
   <varray name="basis" >
    <v>      15.00000000       0.00000000       0.00000000 </v>
    <v>       0.00000000      15.00000000       0.00000000 </v>
    <v>       0.00000000       0.00000000       2.10000000 </v>
   </varray>
   <i name="volume">    472.50000000 </i>
   <varray name="rec_basis" >
    <v>       0.06666667      -0.00000000       0.00000000 </v>
    <v>       0.00000000       0.06666667       0.00000000 </v>
    <v>      -0.00000000      -0.00000000       0.47619048 </v>
   </varray>
  </crystal>
  <varray name="positions" >
   <v>       0.00000000       0.00000000       0.00000000 </v>
  </varray>
 </structure>
 <varray name="primitive_index" >
  <v type="int" >        1 </v>
 </varray>
 <kpoints>
  <generation param="Gamma">
   <v type="int" name="divisions">       1        1        1 </v>
   <v name="usershift">      0.00000000       0.00000000       0.00000000 </v>
   <v name="genvec1">      1.00000000      -0.00000000       0.00000000 </v>
   <v name="genvec2">      0.00000000       1.00000000       0.00000000 </v>
   <v name="genvec3">      0.00000000       0.00000000       1.00000000 </v>
   <v name="shift">      0.00000000       0.00000000       0.00000000 </v>
  </generation>
  <varray name="kpointlist" >
   <v>       0.00000000       0.00000000       0.00000000 </v>
  </varray>
  <varray name="weights" >
   <v>       1.00000000 </v>
  </varray>
 </kpoints>
 <parameters>
  <separator name="general" >
   <i type="string" name="SYSTEM">unknown system</i>
   <i type="logical" name="LCOMPAT"> F  </i>
  </separator>
  <separator name="electronic" >
   <i type="string" name="PREC">normal</i>
   <i name="ENMAX">    300.00000000</i>
   <i name="ENAUG">    400.00000000</i>
   <i name="EDIFF">      0.00000100</i>
   <i type="int" name="IALGO">    38</i>
   <i type="int" name="IWAVPR">    10</i>
   <i type="int" name="NBANDS">    12</i>
   <i name="NELECT">      8.00000000</i>
   <i type="int" name="TURBO">     0</i>
   <i type="int" name="IRESTART">     0</i>
   <i type="int" name="NREBOOT">     0</i>
   <i type="int" name="NMIN">     0</i>
   <i name="EREF">      0.00000000</i>
   <separator name="electronic smearing" >
    <i type="int" name="ISMEAR">     0</i>
    <i name="SIGMA">      0.20000000</i>
    <i name="KSPACING">      0.50000000</i>
    <i type="logical" name="KGAMMA"> T  </i>
   </separator>
   <separator name="electronic projectors" >
    <i type="logical" name="LREAL"> F  </i>
    <v name="ROPT">      0.00000000</v>
    <i type="int" name="LMAXPAW">  -100</i>
    <i type="int" name="LMAXMIX">     2</i>
    <i type="logical" name="NLSPLINE"> F  </i>
   </separator>
   <separator name="electronic startup" >
    <i type="int" name="ISTART">     0</i>
    <i type="int" name="ICHARG">     2</i>
    <i type="int" name="INIWAV">     1</i>
   </separator>
   <separator name="electronic spin" >
    <i type="int" name="ISPIN">     2</i>
    <i type="logical" name="LNONCOLLINEAR"> F  </i>
    <v name="MAGMOM">      0.00000000      0.00000000      0.00000000      0.00000000      0.00000000      0.00000000      0.00000000      0.00000000</v>
    <i name="NUPDOWN">      0.00000000</i>
    <i type="logical" name="LSORBIT"> F  </i>
    <v name="SAXIS">      0.00000000      0.00000000      1.00000000</v>
    <i type="logical" name="LSPIRAL"> F  </i>
    <v name="QSPIRAL">      0.00000000      0.00000000      0.00000000</v>
    <i type="logical" name="LZEROZ"> F  </i>
   </separator>
   <separator name="electronic exchange-correlation" >
    <i type="logical" name="LASPH"> F  </i>
    <i type="logical" name="LMETAGGA"> F  </i>
   </separator>
   <separator name="electronic convergence" >
    <i type="int" name="NELM">   100</i>
    <i type="int" name="NELMDL">    -5</i>
    <i type="int" name="NELMIN">     2</i>
    <i name="ENINI">    300.00000000</i>
    <separator name="electronic convergence detail" >
     <i type="logical" name="LDIAG"> T  </i>
     <i type="logical" name="LSUBROT"> F  </i>
     <i name="WEIMIN">      0.00000000</i>
     <i name="EBREAK">      0.00000002</i>
     <i name="DEPER">      0.30000000</i>
     <i type="int" name="NRMM">     4</i>
     <i name="TIME">      0.40000000</i>
    </separator>
   </separator>
   <separator name="electronic mixer" >
    <i name="AMIX">      0.40000000</i>
    <i name="BMIX">      1.00000000</i>
    <i name="AMIN">      0.10000000</i>
    <i name="AMIX_MAG">      1.60000000</i>
    <i name="BMIX_MAG">      1.00000000</i>
    <separator name="electronic mixer details" >
     <i type="int" name="IMIX">     4</i>
     <i type="logical" name="MIXFIRST"> F  </i>
     <i type="int" name="MAXMIX">   -45</i>
     <i name="WC">    100.00000000</i>
     <i type="int" name="INIMIX">     1</i>
     <i type="int" name="MIXPRE">     1</i>
     <i type="int" name="MREMOVE">     5</i>
    </separator>
   </separator>
   <separator name="electronic dipolcorrection" >
    <i type="logical" name="LDIPOL"> F  </i>
    <i type="logical" name="LMONO"> F  </i>
    <i type="int" name="IDIPOL">     0</i>
    <i name="EPSILON">      1.00000000</i>
    <v name="DIPOL">   -100.00000000   -100.00000000   -100.00000000</v>
    <i name="EFIELD">      0.00000000</i>
   </separator>
  </separator>
  <separator name="grids" >
   <i type="int" name="NGX">    64</i>
   <i type="int" name="NGY">    64</i>
   <i type="int" name="NGZ">    72</i>
   <i type="int" name="NGXF">   128</i>
   <i type="int" name="NGYF">   128</i>
   <i type="int" name="NGZF">   144</i>
   <i type="logical" name="ADDGRID"> F  </i>
  </separator>
  <separator name="ionic" >
   <i type="int" name="NSW">     0</i>
   <i type="int" name="IBRION">    -1</i>
   <i type="int" name="MDALGO">     0</i>
   <i type="int" name="ISIF">     2</i>
   <i name="PSTRESS">      0.00000000</i>
   <i name="EDIFFG">      0.00001000</i>
   <i type="int" name="NFREE">     0</i>
   <i name="POTIM">      0.50000000</i>
   <i name="SMASS">     -3.00000000</i>
   <i name="SCALEE">      1.00000000</i>
  </separator>
  <separator name="ionic md" >
   <i name="TEBEG">      0.00010000</i>
   <i name="TEEND">      0.00010000</i>
   <i type="int" name="NBLOCK">     1</i>
   <i type="int" name="KBLOCK">     1</i>
   <i type="int" name="NPACO">   256</i>
   <i name="APACO">     16.00000000</i>
  </separator>
  <separator name="symmetry" >
   <i type="int" name="ISYM">     2</i>
   <i name="SYMPREC">      0.00001000</i>
  </separator>
  <separator name="dos" >
   <i type="int" name="LORBIT">     0</i>
   <v name="RWIGS">     -1.00000000</v>
   <i type="int" name="NEDOS">   301</i>
   <i name="EMIN">     10.00000000</i>
   <i name="EMAX">    -10.00000000</i>
   <i name="EFERMI">      0.00000000</i>
  </separator>
  <separator name="writing" >
   <i type="int" name="NWRITE">     2</i>
   <i type="logical" name="LWAVE"> F  </i>
   <i type="logical" name="LDOWNSAMPLE"> F  </i>
   <i type="logical" name="LCHARG"> F  </i>
   <i type="logical" name="LPARD"> F  </i>
   <i type="logical" name="LVTOT"> F  </i>
   <i type="logical" name="LVHAR"> F  </i>
   <i type="logical" name="LELF"> F  </i>
   <i type="logical" name="LOPTICS"> F  </i>
   <v name="STM">      0.00000000      0.00000000      0.00000000      0.00000000      0.00000000      0.00000000      0.00000000</v>
  </separator>
  <separator name="performance" >
   <i type="int" name="NPAR">     4</i>
   <i type="int" name="NSIM">     4</i>
   <i type="int" name="NBLK">    -1</i>
   <i type="logical" name="LPLANE"> T  </i>
   <i type="logical" name="LSCALAPACK"> T  </i>
   <i type="logical" name="LSCAAWARE"> F  </i>
   <i type="logical" name="LSCALU"> F  </i>
   <i type="logical" name="LASYNC"> F  </i>
   <i type="logical" name="LORBITALREAL"> F  </i>
  </separator>
  <separator name="miscellaneous" >
   <i type="int" name="IDIOT">     3</i>
   <i type="int" name="ISPECIAL">     0</i>
   <i type="logical" name="LMUSIC"> F  </i>
   <v name="POMASS">      1.00000000</v>
   <v name="DARWINR">      0.00000000</v>
   <v name="DARWINV">      1.00000000</v>
   <i type="logical" name="LCORR"> T  </i>
  </separator>
  <i type="logical" name="GGA_COMPAT"> T  </i>
  <i type="logical" name="LBERRY"> F  </i>
  <i type="int" name="ICORELEVEL">     0</i>
  <i type="logical" name="LDAU"> F  </i>
  <i type="int" name="I_CONSTRAINED_M">     0</i>
  <separator name="electronic exchange-correlation" >
   <i type="string" name="GGA">--</i>
   <i type="int" name="VOSKOWN">     0</i>
   <i type="logical" name="LHFCALC"> F  </i>
   <i type="string" name="PRECFOCK"></i>
   <i type="logical" name="LSYMGRAD"> F  </i>
   <i type="logical" name="LHFONE"> F  </i>
   <i type="logical" name="LRHFCALC"> F  </i>
   <i type="logical" name="LTHOMAS"> F  </i>
   <i type="logical" name="LMODELHF"> F  </i>
   <i name="ENCUT4O">     -1.00000000</i>
   <i type="int" name="EXXOEP">     0</i>
   <i type="int" name="FOURORBIT">     0</i>
   <i name="AEXX">      0.00000000</i>
   <i name="HFALPHA">      0.00000000</i>
   <i name="MCALPHA">      0.00000000</i>
   <i name="ALDAX">      1.00000000</i>
   <i name="AGGAX">      1.00000000</i>
   <i name="ALDAC">      1.00000000</i>
   <i name="AGGAC">      1.00000000</i>
   <i type="int" name="NKREDX">     1</i>
   <i type="int" name="NKREDY">     1</i>
   <i type="int" name="NKREDZ">     1</i>
   <i type="logical" name="SHIFTRED"> F  </i>
   <i type="logical" name="ODDONLY"> F  </i>
   <i type="logical" name="EVENONLY"> F  </i>
   <i type="int" name="LMAXFOCK">     0</i>
   <i type="int" name="NMAXFOCKAE">     0</i>
   <i type="logical" name="LFOCKAEDFT"> F  </i>
   <i name="HFSCREEN">      0.00000000</i>
   <i name="HFSCREENC">      0.00000000</i>
   <i type="int" name="NBANDSGWLOW">     0</i>
  </separator>
  <separator name="vdW DFT" >
   <i type="logical" name="LUSE_VDW"> F  </i>
   <i name="Zab_VDW">     -0.84910000</i>
   <i name="PARAM1">      0.12340000</i>
   <i name="PARAM2">      1.00000000</i>
   <i name="PARAM3">      0.00000000</i>
  </separator>
  <separator name="model GW" >
   <i type="int" name="MODEL_GW">     0</i>
   <i name="MODEL_EPS0">    283.50000000</i>
   <i name="MODEL_ALPHA">      1.00000000</i>
  </separator>
  <separator name="linear response parameters" >
   <i type="logical" name="LEPSILON"> F  </i>
   <i type="logical" name="LRPA"> F  </i>
   <i type="logical" name="LNABLA"> F  </i>
   <i type="logical" name="LVEL"> F  </i>
   <i type="int" name="KINTER">     0</i>
   <i name="CSHIFT">      0.10000000</i>
   <i name="OMEGAMAX">     -1.00000000</i>
   <i name="DEG_THRESHOLD">      0.00200000</i>
   <i name="RTIME">     -0.10000000</i>
   <i name="WPLASMAI">      0.00000000</i>
   <v name="DFIELD">      0.00000000      0.00000000      0.00000000</v>
   <v name="WPLASMA">      0.00000000      0.00000000      0.00000000      0.00000000      0.00000000      0.00000000      0.00000000      0.00000000      0.00000000</v>
  </separator>
  <separator name="orbital magnetization" >
   <i type="logical" name="NUCIND"> F  </i>
   <v name="MAGPOS">      0.00000000      0.00000000      0.00000000</v>
   <i type="logical" name="LNICSALL"> T  </i>
   <i type="logical" name="ORBITALMAG"> F  </i>
   <i type="logical" name="LMAGBLOCH"> F  </i>
   <i type="logical" name="LCHIMAG"> F  </i>
   <i type="logical" name="LGAUGE"> T  </i>
   <i type="int" name="MAGATOM">     0</i>
   <v name="MAGDIPOL">      0.00000000      0.00000000      0.00000000</v>
   <v name="AVECCONST">      0.00000000      0.00000000      0.00000000</v>
  </separator>
  <separator name="response functions" >
   <i type="logical" name="LADDER"> F  </i>
   <i type="logical" name="LRPAFORCE"> F  </i>
   <i type="logical" name="LFXC"> F  </i>
   <i type="logical" name="LHARTREE"> T  </i>
   <i type="int" name="IBSE">     0</i>
   <v type="int" name="KPOINT">    -1     0     0     0</v>
   <i type="logical" name="LTCTE"> F  </i>
   <i type="logical" name="LTETE"> F  </i>
   <i type="logical" name="LTRIPLET"> F  </i>
   <i type="logical" name="LFXCEPS"> F  </i>
   <i type="logical" name="LFXHEG"> F  </i>
   <i type="int" name="NATURALO">     2</i>
   <i type="logical" name="L2ORDER"> F  </i>
   <i type="logical" name="LMP2LT"> F  </i>
   <i type="logical" name="LUSEW"> F  </i>
   <i name="ENCUTGW">     -2.00000000</i>
   <i name="ENCUTGWSOFT">     -2.00000000</i>
   <i name="ENCUTLF">     -1.00000000</i>
   <i type="int" name="LMAXMP2">    -1</i>
   <i name="SCISSOR">      0.00000000</i>
   <i type="int" name="NOMEGA">     0</i>
   <i type="int" name="NOMEGAR">     0</i>
   <i type="int" name="NBANDSGW">    -1</i>
   <i type="int" name="NBANDSO">    -1</i>
   <i type="int" name="NBANDSV">    -1</i>
   <i type="int" name="NELM">   100</i>
   <i type="int" name="NELMHF">     1</i>
   <i type="int" name="DIM">     3</i>
   <i type="int" name="ANTIRES">     0</i>
   <i name="OMEGAMAX">    -30.00000000</i>
   <i name="OMEGAMIN">    -30.00000000</i>
   <i name="OMEGATL">   -200.00000000</i>
   <i type="int" name="OMEGAGRID">   140</i>
   <i name="CSHIFT">     -0.10000000</i>
   <i type="logical" name="SELFENERGY"> F  </i>
   <i type="logical" name="LSPECTRAL"> F  </i>
   <i type="logical" name="LSPECTRALGW"> F  </i>
   <i type="logical" name="LSINGLES"> F  </i>
   <i type="logical" name="LFERMIGW"> F  </i>
   <i type="logical" name="ODDONLYGW"> F  </i>
   <i type="logical" name="EVENONLYGW"> F  </i>
   <i type="int" name="NKREDLFX">     1</i>
   <i type="int" name="NKREDLFY">     1</i>
   <i type="int" name="NKREDLFZ">     1</i>
   <i type="int" name="MAXMEM">  2800</i>
   <i type="int" name="TELESCOPE">     0</i>
   <i type="int" name="TAUPAR">     1</i>
   <i type="int" name="OMEGAPAR">    -1</i>
   <i name="LAMBDA">      1.00000000</i>
  </separator>
  <separator name="External order field" >
   <i name="OFIELD_KAPPA">      0.00000000</i>
   <v name="OFIELD_K">      0.00000000      0.00000000      0.00000000</v>
   <i name="OFIELD_Q6_NEAR">      0.00000000</i>
   <i name="OFIELD_Q6_FAR">      0.00000000</i>
   <i name="OFIELD_A">      0.00000000</i>
  </separator>
 </parameters>
 <atominfo>
  <atoms>       8 </atoms>
  <types>       1 </types>
  <array name="atoms" >
   <dimension dim="1">ion</dimension>
   <field type="string">element</field>
   <field type="int">atomtype</field>
   <set>
    <rc><c>H </c><c>   1</c></rc>
    <rc><c>H </c><c>   1</c></rc>
    <rc><c>H </c><c>   1</c></rc>
    <rc><c>H </c><c>   1</c></rc>
    <rc><c>H </c><c>   1</c></rc>
    <rc><c>H </c><c>   1</c></rc>
    <rc><c>H </c><c>   1</c></rc>
    <rc><c>H </c><c>   1</c></rc>
   </set>
  </array>
  <array name="atomtypes" >
   <dimension dim="1">type</dimension>
   <field type="int">atomspertype</field>
   <field type="string">element</field>
   <field>mass</field>
   <field>valence</field>
   <field type="string">pseudopotential</field>
   <set>
    <rc><c>   8</c><c>H </c><c>      1.00000000</c><c>      1.00000000</c><c>  PAW_PBE H 15Jun2001                   </c></rc>
   </set>
  </array>
 </atominfo>
 <structure name="initialpos" >
  <crystal>
   <varray name="basis" >
    <v>      15.00000000       0.00000000       0.00000000 </v>
    <v>       0.00000000      15.00000000       0.00000000 </v>
    <v>       0.00000000       0.00000000      16.80000000 </v>
   </varray>
   <i name="volume">   3780.00000000 </i>
   <varray name="rec_basis" >
    <v>       0.06666667      -0.00000000       0.00000000 </v>
    <v>       0.00000000       0.06666667       0.00000000 </v>
    <v>      -0.00000000      -0.00000000       0.05952381 </v>
   </varray>
  </crystal>
  <varray name="positions" >
   <v>       0.00000000       0.00000000       0.00000000 </v>
   <v>       0.00000000       0.00000000       0.12500000 </v>
   <v>       0.00000000       0.00000000       0.25000000 </v>
   <v>       0.00000000       0.00000000       0.37500000 </v>
   <v>       0.00000000       0.00000000       0.50000000 </v>
   <v>       0.00000000       0.00000000       0.62500000 </v>
   <v>       0.00000000       0.00000000       0.75000000 </v>
   <v>       0.00000000       0.00000000       0.87500000 </v>
  </varray>
 </structure>
 <calculation>
  <scstep>
   <time name="dav">    0.59    0.59</time>
   <time name="total">    1.47    1.47</time>
   <energy>
    <i name="alphaZ">      0.04124728 </i>
    <i name="ewald">     29.60313124 </i>
    <i name="hartreedc">    -92.08571747 </i>
    <i name="XCdc">     15.63378789 </i>
    <i name="pawpsdc">     17.07221949 </i>
    <i name="pawaedc">    -17.14324176 </i>
    <i name="eentropy">     -0.00000000 </i>
    <i name="bandstr">    -35.81478762 </i>
    <i name="atom">     99.56620307 </i>
    <i name="e_fr_energy">     16.87284212 </i>
    <i name="e_wo_entrp">     16.87284212 </i>
    <i name="e_0_energy">     16.87284212 </i>
   </energy>
  </scstep>
  <scstep>
   <time name="dav">    0.96    0.96</time>
   <time name="total">    0.96    0.96</time>
   <energy>
    <i name="e_fr_energy">     -6.77587783 </i>
    <i name="e_wo_entrp">     -6.76925091 </i>
    <i name="e_0_energy">     -6.77256437 </i>
   </energy>
  </scstep>
  <scstep>
   <time name="dav">    0.79    0.79</time>
   <time name="total">    0.79    0.79</time>
   <energy>
    <i name="e_fr_energy">     -9.08643336 </i>
    <i name="e_wo_entrp">     -8.86156319 </i>
    <i name="e_0_energy">     -8.97399827 </i>
   </energy>
  </scstep>
  <scstep>
   <time name="dav">    0.66    0.65</time>
   <time name="total">    0.66    0.66</time>
   <energy>
    <i name="e_fr_energy">     -9.14437281 </i>
    <i name="e_wo_entrp">     -8.91869703 </i>
    <i name="e_0_energy">     -9.03153492 </i>
   </energy>
  </scstep>
  <scstep>
   <time name="dav">    0.78    0.78</time>
   <time name="total">    1.05    1.05</time>
   <energy>
    <i name="e_fr_energy">     -9.14495207 </i>
    <i name="e_wo_entrp">     -8.91927624 </i>
    <i name="e_0_energy">     -9.03211415 </i>
   </energy>
  </scstep>
  <scstep>
   <time name="dav">    0.57    0.57</time>
   <time name="total">    1.74    1.74</time>
   <energy>
    <i name="e_fr_energy">     -9.17755911 </i>
    <i name="e_wo_entrp">     -8.95188328 </i>
    <i name="e_0_energy">     -9.06472120 </i>
   </energy>
  </scstep>
  <scstep>
   <time name="dav">    0.71    0.71</time>
   <time name="total">    1.90    1.90</time>
   <energy>
    <i name="e_fr_energy">     -9.21000683 </i>
    <i name="e_wo_entrp">     -8.98433100 </i>
    <i name="e_0_energy">     -9.09716892 </i>
   </energy>
  </scstep>
  <scstep>
   <time name="dav">    0.57    0.57</time>
   <time name="total">    1.75    1.75</time>
   <energy>
    <i name="e_fr_energy">     -9.21106829 </i>
    <i name="e_wo_entrp">     -8.98539245 </i>
    <i name="e_0_energy">     -9.09823037 </i>
   </energy>
  </scstep>
  <scstep>
   <time name="dav">    0.64    0.64</time>
   <time name="total">    1.82    1.82</time>
   <energy>
    <i name="e_fr_energy">     -9.21116724 </i>
    <i name="e_wo_entrp">     -8.98549141 </i>
    <i name="e_0_energy">     -9.09832933 </i>
   </energy>
  </scstep>
  <scstep>
   <time name="dav">    0.64    0.64</time>
   <time name="total">    1.83    1.83</time>
   <energy>
    <i name="e_fr_energy">     -9.21124609 </i>
    <i name="e_wo_entrp">     -8.98557025 </i>
    <i name="e_0_energy">     -9.09840817 </i>
   </energy>
  </scstep>
  <scstep>
   <time name="dav">    0.57    0.57</time>
   <time name="total">    1.76    1.76</time>
   <energy>
    <i name="e_fr_energy">     -9.21128110 </i>
    <i name="e_wo_entrp">     -8.98560526 </i>
    <i name="e_0_energy">     -9.09844318 </i>
   </energy>
  </scstep>
  <scstep>
   <time name="dav">    0.44    0.44</time>
   <time name="total">    1.63    1.63</time>
   <energy>
    <i name="e_fr_energy">     -9.21131047 </i>
    <i name="e_wo_entrp">     -8.98563463 </i>
    <i name="e_0_energy">     -9.09847255 </i>
   </energy>
  </scstep>
  <scstep>
   <time name="dav">    0.57    0.57</time>
   <time name="total">    1.76    1.76</time>
   <energy>
    <i name="e_fr_energy">     -9.21134265 </i>
    <i name="e_wo_entrp">     -8.98566682 </i>
    <i name="e_0_energy">     -9.09850473 </i>
   </energy>
  </scstep>
  <scstep>
   <time name="dav">    0.44    0.44</time>
   <time name="total">    1.64    1.66</time>
   <energy>
    <i name="e_fr_energy">     -9.21135192 </i>
    <i name="e_wo_entrp">     -8.98567608 </i>
    <i name="e_0_energy">     -9.09851400 </i>
   </energy>
  </scstep>
  <scstep>
   <time name="dav">    0.44    0.44</time>
   <time name="total">    1.61    1.61</time>
   <energy>
    <i name="e_fr_energy">     -9.21137777 </i>
    <i name="e_wo_entrp">     -8.98570194 </i>
    <i name="e_0_energy">     -9.09853985 </i>
   </energy>
  </scstep>
  <scstep>
   <time name="dav">    0.44    0.44</time>
   <time name="total">    1.64    1.64</time>
   <energy>
    <i name="e_fr_energy">     -9.21138284 </i>
    <i name="e_wo_entrp">     -8.98570701 </i>
    <i name="e_0_energy">     -9.09854493 </i>
   </energy>
  </scstep>
  <scstep>
   <time name="dav">    0.44    0.44</time>
   <time name="total">    1.64    1.64</time>
   <energy>
    <i name="e_fr_energy">     -9.21138714 </i>
    <i name="e_wo_entrp">     -8.98571131 </i>
    <i name="e_0_energy">     -9.09854922 </i>
   </energy>
  </scstep>
  <scstep>
   <time name="dav">    0.44    0.44</time>
   <time name="total">    1.63    1.63</time>
   <energy>
    <i name="e_fr_energy">     -9.21138840 </i>
    <i name="e_wo_entrp">     -8.98571257 </i>
    <i name="e_0_energy">     -9.09855049 </i>
   </energy>
  </scstep>
  <scstep>
   <time name="dav">    0.44    0.44</time>
   <time name="total">    1.36    1.36</time>
   <energy>
    <i name="alphaZ">      0.04124728 </i>
    <i name="ewald">     29.60313124 </i>
    <i name="hartreedc">    -91.29284675 </i>
    <i name="XCdc">     15.38586273 </i>
    <i name="pawpsdc">     19.26570626 </i>
    <i name="pawaedc">    -19.32311256 </i>
    <i name="eentropy">     -0.22567583 </i>
    <i name="bandstr">    -62.23190424 </i>
    <i name="atom">     99.56620307 </i>
    <i name="e_fr_energy">     -9.21138881 </i>
    <i name="e_wo_entrp">     -8.98571297 </i>
    <i name="e_0_energy">     -9.09855089 </i>
   </energy>
  </scstep>
  <structure>
   <crystal>
    <varray name="basis" >
     <v>      15.00000000       0.00000000       0.00000000 </v>
     <v>       0.00000000      15.00000000       0.00000000 </v>
     <v>       0.00000000       0.00000000      16.80000000 </v>
    </varray>
    <i name="volume">   3780.00000000 </i>
    <varray name="rec_basis" >
     <v>       0.06666667      -0.00000000       0.00000000 </v>
     <v>       0.00000000       0.06666667       0.00000000 </v>
     <v>      -0.00000000      -0.00000000       0.05952381 </v>
    </varray>
   </crystal>
   <varray name="positions" >
    <v>       0.00000000       0.00000000       0.00000000 </v>
    <v>       0.00000000       0.00000000       0.12500000 </v>
    <v>       0.00000000       0.00000000       0.25000000 </v>
    <v>       0.00000000       0.00000000       0.37500000 </v>
    <v>       0.00000000       0.00000000       0.50000000 </v>
    <v>       0.00000000       0.00000000       0.62500000 </v>
    <v>       0.00000000       0.00000000       0.75000000 </v>
    <v>       0.00000000       0.00000000       0.87500000 </v>
   </varray>
  </structure>
  <varray name="forces" >
   <v>       0.00000000       0.00000000       0.00000000 </v>
   <v>      -0.00000000      -0.00000000       0.00000000 </v>
   <v>      -0.00000000       0.00000000       0.00000000 </v>
   <v>       0.00000000       0.00000000      -0.00000000 </v>
   <v>       0.00000000      -0.00000000       0.00000000 </v>
   <v>      -0.00000000       0.00000000       0.00000000 </v>
   <v>       0.00000000       0.00000000      -0.00000000 </v>
   <v>      -0.00000000      -0.00000000       0.00000000 </v>
  </varray>
  <varray name="stress" >
   <v>      -0.35950264      -0.00000000      -0.00000000 </v>
   <v>      -0.00000000      -0.35950264      -0.00000000 </v>
   <v>      -0.00000000      -0.00000000      -9.35751478 </v>
  </varray>
  <energy>
   <i name="e_fr_energy">     -9.21138881 </i>
   <i name="e_wo_entrp">     -9.09855089 </i>
   <i name="e_0_energy">     -0.22567583 </i>
  </energy>
  <time name="totalsc">   30.38   30.42</time>
  <eigenvalues>
   <array>
    <dimension dim="1">band</dimension>
    <dimension dim="2">kpoint</dimension>
    <dimension dim="3">spin</dimension>
    <field>eigene</field>
    <field>occ</field>
    <set>
     <set comment="spin 1">
      <set comment="kpoint 1">
       <r>   -8.4470    1.0000 </r>
       <r>   -7.9927    1.0000 </r>
       <r>   -7.9927    1.0000 </r>
       <r>   -6.6835    0.5000 </r>
       <r>   -6.6835    0.5000 </r>
       <r>   -4.8142    0.0000 </r>
       <r>   -4.8142    0.0000 </r>
       <r>   -3.6374    0.0000 </r>
       <r>   -0.1194    0.0000 </r>
       <r>   -0.1192    0.0000 </r>
       <r>   -0.1192    0.0000 </r>
       <r>    0.4094    0.0000 </r>
      </set>
     </set>
     <set comment="spin 2">
      <set comment="kpoint 1">
       <r>   -8.4470    1.0000 </r>
       <r>   -7.9927    1.0000 </r>
       <r>   -7.9927    1.0000 </r>
       <r>   -6.6835    0.5000 </r>
       <r>   -6.6835    0.5000 </r>
       <r>   -4.8142    0.0000 </r>
       <r>   -4.8142    0.0000 </r>
       <r>   -3.6374    0.0000 </r>
       <r>   -0.1194    0.0000 </r>
       <r>   -0.1193    0.0000 </r>
       <r>   -0.1193    0.0000 </r>
       <r>    0.4094    0.0000 </r>
      </set>
     </set>
    </set>
   </array>
  </eigenvalues>
  <separator name="orbital magnetization" >
   <v name="MAGDIPOLOUT">      0.00000000      0.00000000      0.00000000</v>
  </separator>
  <dos>
   <i name="efermi">     -6.68352131 </i>
   <total>
    <array>
     <dimension dim="1">gridpoints</dimension>
     <dimension dim="2">spin</dimension>
     <field>energy</field>
     <field>total</field>
     <field>integrated</field>
     <set>
      <set comment="spin 1">
       <r>   -10.4470     0.0000     0.0000 </r>
       <r>   -10.4042     0.0000     0.0000 </r>
       <r>   -10.3613     0.0000     0.0000 </r>
       <r>   -10.3185     0.0000     0.0000 </r>
       <r>   -10.2756     0.0000     0.0000 </r>
       <r>   -10.2327     0.0000     0.0000 </r>
       <r>   -10.1899     0.0000     0.0000 </r>
       <r>   -10.1470     0.0000     0.0000 </r>
       <r>   -10.1042     0.0000     0.0000 </r>
       <r>   -10.0613     0.0000     0.0000 </r>
       <r>   -10.0185     0.0000     0.0000 </r>
       <r>    -9.9756     0.0000     0.0000 </r>
       <r>    -9.9328     0.0000     0.0000 </r>
       <r>    -9.8899     0.0000     0.0000 </r>
       <r>    -9.8471     0.0000     0.0000 </r>
       <r>    -9.8042     0.0000     0.0000 </r>
       <r>    -9.7613     0.0000     0.0000 </r>
       <r>    -9.7185     0.0000     0.0000 </r>
       <r>    -9.6756     0.0000     0.0000 </r>
       <r>    -9.6328     0.0000     0.0000 </r>
       <r>    -9.5899     0.0000     0.0000 </r>
       <r>    -9.5471     0.0000     0.0000 </r>
       <r>    -9.5042     0.0000     0.0000 </r>
       <r>    -9.4614     0.0000     0.0000 </r>
       <r>    -9.4185     0.0000     0.0000 </r>
       <r>    -9.3757     0.0000     0.0000 </r>
       <r>    -9.3328     0.0000     0.0000 </r>
       <r>    -9.2899     0.0000     0.0000 </r>
       <r>    -9.2471     0.0000     0.0000 </r>
       <r>    -9.2042     0.0000     0.0000 </r>
       <r>    -9.1614     0.0000     0.0000 </r>
       <r>    -9.1185     0.0000     0.0000 </r>
       <r>    -9.0757     0.0002     0.0000 </r>
       <r>    -9.0328     0.0006     0.0000 </r>
       <r>    -8.9900     0.0021     0.0001 </r>
       <r>    -8.9471     0.0066     0.0004 </r>
       <r>    -8.9042     0.0191     0.0012 </r>
       <r>    -8.8614     0.0505     0.0034 </r>
       <r>    -8.8185     0.1219     0.0086 </r>
       <r>    -8.7757     0.2686     0.0201 </r>
       <r>    -8.7328     0.5404     0.0433 </r>
       <r>    -8.6900     0.9923     0.0858 </r>
       <r>    -8.6471     1.6636     0.1571 </r>
       <r>    -8.6043     2.5462     0.2662 </r>
       <r>    -8.5614     3.5585     0.4187 </r>
       <r>    -8.5186     4.5425     0.6134 </r>
       <r>    -8.4757     5.3014     0.8406 </r>
       <r>    -8.4328     5.6700     1.0836 </r>
       <r>    -8.3900     5.5915     1.3232 </r>
       <r>    -8.3471     5.1621     1.5444 </r>
       <r>    -8.3043     4.6189     1.7423 </r>
       <r>    -8.2614     4.2721     1.9254 </r>
       <r>    -8.2186     4.4061     2.1142 </r>
       <r>    -8.1757     5.1792     2.3362 </r>
       <r>    -8.1329     6.5518     2.6170 </r>
       <r>    -8.0900     8.2671     2.9713 </r>
       <r>    -8.0472     9.9055     3.3958 </r>
       <r>    -8.0043    11.0095     3.8676 </r>
       <r>    -7.9614    11.2407     4.3493 </r>
       <r>    -7.9186    10.5022     4.7994 </r>
       <r>    -7.8757     8.9659     5.1836 </r>
       <r>    -7.8329     6.9900     5.4831 </r>
       <r>    -7.7900     4.9756     5.6964 </r>
       <r>    -7.7472     3.2334     5.8349 </r>
       <r>    -7.7043     1.9182     5.9171 </r>
       <r>    -7.6615     1.0389     5.9617 </r>
       <r>    -7.6186     0.5136     5.9837 </r>
       <r>    -7.5758     0.2318     5.9936 </r>
       <r>    -7.5329     0.0955     5.9977 </r>
       <r>    -7.4900     0.0359     5.9992 </r>
       <r>    -7.4472     0.0123     5.9998 </r>
       <r>    -7.4043     0.0039     5.9999 </r>
       <r>    -7.3615     0.0012     6.0000 </r>
       <r>    -7.3186     0.0005     6.0000 </r>
       <r>    -7.2758     0.0011     6.0001 </r>
       <r>    -7.2329     0.0035     6.0002 </r>
       <r>    -7.1901     0.0112     6.0007 </r>
       <r>    -7.1472     0.0327     6.0021 </r>
       <r>    -7.1043     0.0878     6.0058 </r>
       <r>    -7.0615     0.2148     6.0151 </r>
       <r>    -7.0186     0.4798     6.0356 </r>
       <r>    -6.9758     0.9785     6.0775 </r>
       <r>    -6.9329     1.8216     6.1556 </r>
       <r>    -6.8901     3.0959     6.2883 </r>
       <r>    -6.8472     4.8033     6.4941 </r>
       <r>    -6.8044     6.8031     6.7857 </r>
       <r>    -6.7615     8.7964     7.1626 </r>
       <r>    -6.7187    10.3831     7.6076 </r>
       <r>    -6.6758    11.1885     8.0871 </r>
       <r>    -6.6329    11.0063     8.5588 </r>
       <r>    -6.5901     9.8840     8.9823 </r>
       <r>    -6.5472     8.1031     9.3296 </r>
       <r>    -6.5044     6.0645     9.5895 </r>
       <r>    -6.4615     4.1434     9.7671 </r>
       <r>    -6.4187     2.5843     9.8778 </r>
       <r>    -6.3758     1.4715     9.9409 </r>
       <r>    -6.3330     0.7648     9.9736 </r>
       <r>    -6.2901     0.3629     9.9892 </r>
       <r>    -6.2473     0.1572     9.9959 </r>
       <r>    -6.2044     0.0622     9.9986 </r>
       <r>    -6.1615     0.0224     9.9996 </r>
       <r>    -6.1187     0.0074     9.9999 </r>
       <r>    -6.0758     0.0022    10.0000 </r>
       <r>    -6.0330     0.0006    10.0000 </r>
       <r>    -5.9901     0.0002    10.0000 </r>
       <r>    -5.9473     0.0000    10.0000 </r>
       <r>    -5.9044     0.0000    10.0000 </r>
       <r>    -5.8616     0.0000    10.0000 </r>
       <r>    -5.8187     0.0000    10.0000 </r>
       <r>    -5.7758     0.0000    10.0000 </r>
       <r>    -5.7330     0.0000    10.0000 </r>
       <r>    -5.6901     0.0000    10.0000 </r>
       <r>    -5.6473     0.0000    10.0000 </r>
       <r>    -5.6044     0.0000    10.0000 </r>
       <r>    -5.5616     0.0000    10.0000 </r>
       <r>    -5.5187     0.0000    10.0000 </r>
       <r>    -5.4759     0.0001    10.0000 </r>
       <r>    -5.4330     0.0004    10.0000 </r>
       <r>    -5.3902     0.0016    10.0001 </r>
       <r>    -5.3473     0.0055    10.0003 </r>
       <r>    -5.3044     0.0170    10.0011 </r>
       <r>    -5.2616     0.0481    10.0031 </r>
       <r>    -5.2187     0.1246    10.0085 </r>
       <r>    -5.1759     0.2946    10.0211 </r>
       <r>    -5.1330     0.6358    10.0483 </r>
       <r>    -5.0902     1.2525    10.1020 </r>
       <r>    -5.0473     2.2524    10.1985 </r>
       <r>    -5.0045     3.6978    10.3570 </r>
       <r>    -4.9616     5.5418    10.5945 </r>
       <r>    -4.9188     7.5820    10.9194 </r>
       <r>    -4.8759     9.4698    11.3252 </r>
       <r>    -4.8330    10.7974    11.7880 </r>
       <r>    -4.7902    11.2389    12.2696 </r>
       <r>    -4.7473    10.6795    12.7273 </r>
       <r>    -4.7045     9.2642    13.1243 </r>
       <r>    -4.6616     7.3364    13.4387 </r>
       <r>    -4.6188     5.3037    13.6660 </r>
       <r>    -4.5759     3.5003    13.8160 </r>
       <r>    -4.5331     2.1089    13.9064 </r>
       <r>    -4.4902     1.1599    13.9561 </r>
       <r>    -4.4473     0.5824    13.9810 </r>
       <r>    -4.4045     0.2669    13.9925 </r>
       <r>    -4.3616     0.1117    13.9973 </r>
       <r>    -4.3188     0.0427    13.9991 </r>
       <r>    -4.2759     0.0150    13.9997 </r>
       <r>    -4.2331     0.0052    13.9999 </r>
       <r>    -4.1902     0.0029    14.0001 </r>
       <r>    -4.1474     0.0055    14.0003 </r>
       <r>    -4.1045     0.0152    14.0010 </r>
       <r>    -4.0617     0.0407    14.0027 </r>
       <r>    -4.0188     0.1003    14.0070 </r>
       <r>    -3.9759     0.2258    14.0167 </r>
       <r>    -3.9331     0.4638    14.0366 </r>
       <r>    -3.8902     0.8697    14.0738 </r>
       <r>    -3.8474     1.4889    14.1376 </r>
       <r>    -3.8045     2.3268    14.2373 </r>
       <r>    -3.7617     3.3196    14.3796 </r>
       <r>    -3.7188     4.3235    14.5649 </r>
       <r>    -3.6760     5.1406    14.7852 </r>
       <r>    -3.6331     5.5797    15.0243 </r>
       <r>    -3.5903     5.5288    15.2612 </r>
       <r>    -3.5474     5.0012    15.4756 </r>
       <r>    -3.5045     4.1300    15.6526 </r>
       <r>    -3.4617     3.1134    15.7860 </r>
       <r>    -3.4188     2.1427    15.8778 </r>
       <r>    -3.3760     1.3461    15.9355 </r>
       <r>    -3.3331     0.7721    15.9686 </r>
       <r>    -3.2903     0.4042    15.9859 </r>
       <r>    -3.2474     0.1932    15.9942 </r>
       <r>    -3.2046     0.0843    15.9978 </r>
       <r>    -3.1617     0.0336    15.9992 </r>
       <r>    -3.1188     0.0122    15.9998 </r>
       <r>    -3.0760     0.0041    15.9999 </r>
       <r>    -3.0331     0.0012    16.0000 </r>
       <r>    -2.9903     0.0003    16.0000 </r>
       <r>    -2.9474     0.0001    16.0000 </r>
       <r>    -2.9046     0.0000    16.0000 </r>
       <r>    -2.8617     0.0000    16.0000 </r>
       <r>    -2.8189     0.0000    16.0000 </r>
       <r>    -2.7760     0.0000    16.0000 </r>
       <r>    -2.7332     0.0000    16.0000 </r>
       <r>    -2.6903     0.0000    16.0000 </r>
       <r>    -2.6474     0.0000    16.0000 </r>
       <r>    -2.6046     0.0000    16.0000 </r>
       <r>    -2.5617     0.0000    16.0000 </r>
       <r>    -2.5189     0.0000    16.0000 </r>
       <r>    -2.4760     0.0000    16.0000 </r>
       <r>    -2.4332     0.0000    16.0000 </r>
       <r>    -2.3903     0.0000    16.0000 </r>
       <r>    -2.3475     0.0000    16.0000 </r>
       <r>    -2.3046     0.0000    16.0000 </r>
       <r>    -2.2618     0.0000    16.0000 </r>
       <r>    -2.2189     0.0000    16.0000 </r>
       <r>    -2.1760     0.0000    16.0000 </r>
       <r>    -2.1332     0.0000    16.0000 </r>
       <r>    -2.0903     0.0000    16.0000 </r>
       <r>    -2.0475     0.0000    16.0000 </r>
       <r>    -2.0046     0.0000    16.0000 </r>
       <r>    -1.9618     0.0000    16.0000 </r>
       <r>    -1.9189     0.0000    16.0000 </r>
       <r>    -1.8761     0.0000    16.0000 </r>
       <r>    -1.8332     0.0000    16.0000 </r>
       <r>    -1.7903     0.0000    16.0000 </r>
       <r>    -1.7475     0.0000    16.0000 </r>
       <r>    -1.7046     0.0000    16.0000 </r>
       <r>    -1.6618     0.0000    16.0000 </r>
       <r>    -1.6189     0.0000    16.0000 </r>
       <r>    -1.5761     0.0000    16.0000 </r>
       <r>    -1.5332     0.0000    16.0000 </r>
       <r>    -1.4904     0.0000    16.0000 </r>
       <r>    -1.4475     0.0000    16.0000 </r>
       <r>    -1.4047     0.0000    16.0000 </r>
       <r>    -1.3618     0.0000    16.0000 </r>
       <r>    -1.3189     0.0000    16.0000 </r>
       <r>    -1.2761     0.0000    16.0000 </r>
       <r>    -1.2332     0.0000    16.0000 </r>
       <r>    -1.1904     0.0000    16.0000 </r>
       <r>    -1.1475     0.0000    16.0000 </r>
       <r>    -1.1047     0.0000    16.0000 </r>
       <r>    -1.0618     0.0000    16.0000 </r>
       <r>    -1.0190     0.0000    16.0000 </r>
       <r>    -0.9761     0.0000    16.0000 </r>
       <r>    -0.9333     0.0000    16.0000 </r>
       <r>    -0.8904     0.0000    16.0000 </r>
       <r>    -0.8475     0.0000    16.0000 </r>
       <r>    -0.8047     0.0001    16.0000 </r>
       <r>    -0.7618     0.0003    16.0000 </r>
       <r>    -0.7190     0.0012    16.0001 </r>
       <r>    -0.6761     0.0042    16.0002 </r>
       <r>    -0.6333     0.0137    16.0008 </r>
       <r>    -0.5904     0.0410    16.0026 </r>
       <r>    -0.5476     0.1116    16.0074 </r>
       <r>    -0.5047     0.2774    16.0193 </r>
       <r>    -0.4619     0.6297    16.0462 </r>
       <r>    -0.4190     1.3048    16.1022 </r>
       <r>    -0.3761     2.4680    16.2079 </r>
       <r>    -0.3333     4.2616    16.3906 </r>
       <r>    -0.2904     6.7178    16.6784 </r>
       <r>    -0.2476     9.6672    17.0927 </r>
       <r>    -0.2047    12.6999    17.6370 </r>
       <r>    -0.1619    15.2313    18.2897 </r>
       <r>    -0.1190    16.6777    19.0044 </r>
       <r>    -0.0762    16.6752    19.7191 </r>
       <r>    -0.0333    15.2328    20.3719 </r>
       <r>     0.0096    12.7346    20.9176 </r>
       <r>     0.0524     9.7920    21.3372 </r>
       <r>     0.0953     7.0294    21.6385 </r>
       <r>     0.1381     4.9073    21.8488 </r>
       <r>     0.1810     3.6450    22.0050 </r>
       <r>     0.2238     3.2353    22.1436 </r>
       <r>     0.2667     3.5041    22.2938 </r>
       <r>     0.3095     4.1760    22.4728 </r>
       <r>     0.3524     4.9349    22.6842 </r>
       <r>     0.3952     5.4869    22.9194 </r>
       <r>     0.4381     5.6266    23.1605 </r>
       <r>     0.4810     5.2850    23.3870 </r>
       <r>     0.5238     4.5368    23.5814 </r>
       <r>     0.5667     3.5566    23.7338 </r>
       <r>     0.6095     2.5456    23.8429 </r>
       <r>     0.6524     1.6633    23.9142 </r>
       <r>     0.6952     0.9922    23.9567 </r>
       <r>     0.7381     0.5403    23.9799 </r>
       <r>     0.7809     0.2686    23.9914 </r>
       <r>     0.8238     0.1219    23.9966 </r>
       <r>     0.8666     0.0505    23.9988 </r>
       <r>     0.9095     0.0191    23.9996 </r>
       <r>     0.9524     0.0066    23.9999 </r>
       <r>     0.9952     0.0021    24.0000 </r>
       <r>     1.0381     0.0006    24.0000 </r>
       <r>     1.0809     0.0002    24.0000 </r>
       <r>     1.1238     0.0000    24.0000 </r>
       <r>     1.1666     0.0000    24.0000 </r>
       <r>     1.2095     0.0000    24.0000 </r>
       <r>     1.2523     0.0000    24.0000 </r>
       <r>     1.2952     0.0000    24.0000 </r>
       <r>     1.3381     0.0000    24.0000 </r>
       <r>     1.3809     0.0000    24.0000 </r>
       <r>     1.4238     0.0000    24.0000 </r>
       <r>     1.4666     0.0000    24.0000 </r>
       <r>     1.5095     0.0000    24.0000 </r>
       <r>     1.5523     0.0000    24.0000 </r>
       <r>     1.5952     0.0000    24.0000 </r>
       <r>     1.6380     0.0000    24.0000 </r>
       <r>     1.6809     0.0000    24.0000 </r>
       <r>     1.7237     0.0000    24.0000 </r>
       <r>     1.7666     0.0000    24.0000 </r>
       <r>     1.8095     0.0000    24.0000 </r>
       <r>     1.8523     0.0000    24.0000 </r>
       <r>     1.8952     0.0000    24.0000 </r>
       <r>     1.9380     0.0000    24.0000 </r>
       <r>     1.9809     0.0000    24.0000 </r>
       <r>     2.0237     0.0000    24.0000 </r>
       <r>     2.0666     0.0000    24.0000 </r>
       <r>     2.1094     0.0000    24.0000 </r>
       <r>     2.1523     0.0000    24.0000 </r>
       <r>     2.1951     0.0000    24.0000 </r>
       <r>     2.2380     0.0000    24.0000 </r>
       <r>     2.2809     0.0000    24.0000 </r>
       <r>     2.3237     0.0000    24.0000 </r>
       <r>     2.3666     0.0000    24.0000 </r>
       <r>     2.4094     0.0000    24.0000 </r>
      </set>
      <set comment="spin 2">
       <r>   -10.4470     0.0000     0.0000 </r>
       <r>   -10.4042     0.0000     0.0000 </r>
       <r>   -10.3613     0.0000     0.0000 </r>
       <r>   -10.3185     0.0000     0.0000 </r>
       <r>   -10.2756     0.0000     0.0000 </r>
       <r>   -10.2327     0.0000     0.0000 </r>
       <r>   -10.1899     0.0000     0.0000 </r>
       <r>   -10.1470     0.0000     0.0000 </r>
       <r>   -10.1042     0.0000     0.0000 </r>
       <r>   -10.0613     0.0000     0.0000 </r>
       <r>   -10.0185     0.0000     0.0000 </r>
       <r>    -9.9756     0.0000     0.0000 </r>
       <r>    -9.9328     0.0000     0.0000 </r>
       <r>    -9.8899     0.0000     0.0000 </r>
       <r>    -9.8471     0.0000     0.0000 </r>
       <r>    -9.8042     0.0000     0.0000 </r>
       <r>    -9.7613     0.0000     0.0000 </r>
       <r>    -9.7185     0.0000     0.0000 </r>
       <r>    -9.6756     0.0000     0.0000 </r>
       <r>    -9.6328     0.0000     0.0000 </r>
       <r>    -9.5899     0.0000     0.0000 </r>
       <r>    -9.5471     0.0000     0.0000 </r>
       <r>    -9.5042     0.0000     0.0000 </r>
       <r>    -9.4614     0.0000     0.0000 </r>
       <r>    -9.4185     0.0000     0.0000 </r>
       <r>    -9.3757     0.0000     0.0000 </r>
       <r>    -9.3328     0.0000     0.0000 </r>
       <r>    -9.2899     0.0000     0.0000 </r>
       <r>    -9.2471     0.0000     0.0000 </r>
       <r>    -9.2042     0.0000     0.0000 </r>
       <r>    -9.1614     0.0000     0.0000 </r>
       <r>    -9.1185     0.0000     0.0000 </r>
       <r>    -9.0757     0.0002     0.0000 </r>
       <r>    -9.0328     0.0006     0.0000 </r>
       <r>    -8.9900     0.0021     0.0001 </r>
       <r>    -8.9471     0.0066     0.0004 </r>
       <r>    -8.9042     0.0191     0.0012 </r>
       <r>    -8.8614     0.0505     0.0034 </r>
       <r>    -8.8185     0.1219     0.0086 </r>
       <r>    -8.7757     0.2686     0.0201 </r>
       <r>    -8.7328     0.5404     0.0433 </r>
       <r>    -8.6900     0.9923     0.0858 </r>
       <r>    -8.6471     1.6636     0.1571 </r>
       <r>    -8.6043     2.5462     0.2662 </r>
       <r>    -8.5614     3.5585     0.4187 </r>
       <r>    -8.5186     4.5425     0.6134 </r>
       <r>    -8.4757     5.3014     0.8406 </r>
       <r>    -8.4328     5.6700     1.0836 </r>
       <r>    -8.3900     5.5915     1.3232 </r>
       <r>    -8.3471     5.1621     1.5444 </r>
       <r>    -8.3043     4.6189     1.7423 </r>
       <r>    -8.2614     4.2721     1.9254 </r>
       <r>    -8.2186     4.4061     2.1142 </r>
       <r>    -8.1757     5.1793     2.3362 </r>
       <r>    -8.1329     6.5518     2.6170 </r>
       <r>    -8.0900     8.2671     2.9713 </r>
       <r>    -8.0472     9.9055     3.3958 </r>
       <r>    -8.0043    11.0095     3.8676 </r>
       <r>    -7.9614    11.2407     4.3493 </r>
       <r>    -7.9186    10.5022     4.7994 </r>
       <r>    -7.8757     8.9659     5.1836 </r>
       <r>    -7.8329     6.9900     5.4831 </r>
       <r>    -7.7900     4.9756     5.6964 </r>
       <r>    -7.7472     3.2334     5.8349 </r>
       <r>    -7.7043     1.9182     5.9171 </r>
       <r>    -7.6615     1.0389     5.9617 </r>
       <r>    -7.6186     0.5136     5.9837 </r>
       <r>    -7.5758     0.2318     5.9936 </r>
       <r>    -7.5329     0.0955     5.9977 </r>
       <r>    -7.4900     0.0359     5.9992 </r>
       <r>    -7.4472     0.0123     5.9998 </r>
       <r>    -7.4043     0.0039     5.9999 </r>
       <r>    -7.3615     0.0012     6.0000 </r>
       <r>    -7.3186     0.0005     6.0000 </r>
       <r>    -7.2758     0.0011     6.0001 </r>
       <r>    -7.2329     0.0035     6.0002 </r>
       <r>    -7.1901     0.0112     6.0007 </r>
       <r>    -7.1472     0.0327     6.0021 </r>
       <r>    -7.1043     0.0878     6.0058 </r>
       <r>    -7.0615     0.2148     6.0151 </r>
       <r>    -7.0186     0.4798     6.0356 </r>
       <r>    -6.9758     0.9785     6.0775 </r>
       <r>    -6.9329     1.8216     6.1556 </r>
       <r>    -6.8901     3.0959     6.2883 </r>
       <r>    -6.8472     4.8033     6.4941 </r>
       <r>    -6.8044     6.8032     6.7857 </r>
       <r>    -6.7615     8.7965     7.1626 </r>
       <r>    -6.7187    10.3831     7.6076 </r>
       <r>    -6.6758    11.1885     8.0871 </r>
       <r>    -6.6329    11.0063     8.5588 </r>
       <r>    -6.5901     9.8840     8.9823 </r>
       <r>    -6.5472     8.1031     9.3296 </r>
       <r>    -6.5044     6.0644     9.5895 </r>
       <r>    -6.4615     4.1434     9.7671 </r>
       <r>    -6.4187     2.5843     9.8778 </r>
       <r>    -6.3758     1.4714     9.9409 </r>
       <r>    -6.3330     0.7648     9.9736 </r>
       <r>    -6.2901     0.3629     9.9892 </r>
       <r>    -6.2473     0.1572     9.9959 </r>
       <r>    -6.2044     0.0622     9.9986 </r>
       <r>    -6.1615     0.0224     9.9996 </r>
       <r>    -6.1187     0.0074     9.9999 </r>
       <r>    -6.0758     0.0022    10.0000 </r>
       <r>    -6.0330     0.0006    10.0000 </r>
       <r>    -5.9901     0.0002    10.0000 </r>
       <r>    -5.9473     0.0000    10.0000 </r>
       <r>    -5.9044     0.0000    10.0000 </r>
       <r>    -5.8616     0.0000    10.0000 </r>
       <r>    -5.8187     0.0000    10.0000 </r>
       <r>    -5.7758     0.0000    10.0000 </r>
       <r>    -5.7330     0.0000    10.0000 </r>
       <r>    -5.6901     0.0000    10.0000 </r>
       <r>    -5.6473     0.0000    10.0000 </r>
       <r>    -5.6044     0.0000    10.0000 </r>
       <r>    -5.5616     0.0000    10.0000 </r>
       <r>    -5.5187     0.0000    10.0000 </r>
       <r>    -5.4759     0.0001    10.0000 </r>
       <r>    -5.4330     0.0004    10.0000 </r>
       <r>    -5.3902     0.0016    10.0001 </r>
       <r>    -5.3473     0.0055    10.0003 </r>
       <r>    -5.3044     0.0170    10.0011 </r>
       <r>    -5.2616     0.0481    10.0031 </r>
       <r>    -5.2187     0.1246    10.0085 </r>
       <r>    -5.1759     0.2946    10.0211 </r>
       <r>    -5.1330     0.6358    10.0483 </r>
       <r>    -5.0902     1.2525    10.1020 </r>
       <r>    -5.0473     2.2524    10.1985 </r>
       <r>    -5.0045     3.6978    10.3570 </r>
       <r>    -4.9616     5.5418    10.5945 </r>
       <r>    -4.9188     7.5820    10.9194 </r>
       <r>    -4.8759     9.4698    11.3253 </r>
       <r>    -4.8330    10.7974    11.7880 </r>
       <r>    -4.7902    11.2389    12.2696 </r>
       <r>    -4.7473    10.6795    12.7273 </r>
       <r>    -4.7045     9.2641    13.1243 </r>
       <r>    -4.6616     7.3364    13.4387 </r>
       <r>    -4.6188     5.3037    13.6660 </r>
       <r>    -4.5759     3.5003    13.8160 </r>
       <r>    -4.5331     2.1088    13.9064 </r>
       <r>    -4.4902     1.1599    13.9561 </r>
       <r>    -4.4473     0.5824    13.9810 </r>
       <r>    -4.4045     0.2669    13.9925 </r>
       <r>    -4.3616     0.1117    13.9973 </r>
       <r>    -4.3188     0.0427    13.9991 </r>
       <r>    -4.2759     0.0150    13.9997 </r>
       <r>    -4.2331     0.0052    13.9999 </r>
       <r>    -4.1902     0.0029    14.0001 </r>
       <r>    -4.1474     0.0055    14.0003 </r>
       <r>    -4.1045     0.0152    14.0010 </r>
       <r>    -4.0617     0.0407    14.0027 </r>
       <r>    -4.0188     0.1003    14.0070 </r>
       <r>    -3.9759     0.2258    14.0167 </r>
       <r>    -3.9331     0.4638    14.0366 </r>
       <r>    -3.8902     0.8697    14.0738 </r>
       <r>    -3.8474     1.4889    14.1376 </r>
       <r>    -3.8045     2.3268    14.2373 </r>
       <r>    -3.7617     3.3196    14.3796 </r>
       <r>    -3.7188     4.3235    14.5649 </r>
       <r>    -3.6760     5.1406    14.7852 </r>
       <r>    -3.6331     5.5797    15.0243 </r>
       <r>    -3.5903     5.5288    15.2612 </r>
       <r>    -3.5474     5.0012    15.4756 </r>
       <r>    -3.5045     4.1299    15.6526 </r>
       <r>    -3.4617     3.1134    15.7860 </r>
       <r>    -3.4188     2.1426    15.8778 </r>
       <r>    -3.3760     1.3461    15.9355 </r>
       <r>    -3.3331     0.7720    15.9686 </r>
       <r>    -3.2903     0.4042    15.9859 </r>
       <r>    -3.2474     0.1932    15.9942 </r>
       <r>    -3.2046     0.0843    15.9978 </r>
       <r>    -3.1617     0.0336    15.9992 </r>
       <r>    -3.1188     0.0122    15.9998 </r>
       <r>    -3.0760     0.0041    15.9999 </r>
       <r>    -3.0331     0.0012    16.0000 </r>
       <r>    -2.9903     0.0003    16.0000 </r>
       <r>    -2.9474     0.0001    16.0000 </r>
       <r>    -2.9046     0.0000    16.0000 </r>
       <r>    -2.8617     0.0000    16.0000 </r>
       <r>    -2.8189     0.0000    16.0000 </r>
       <r>    -2.7760     0.0000    16.0000 </r>
       <r>    -2.7332     0.0000    16.0000 </r>
       <r>    -2.6903     0.0000    16.0000 </r>
       <r>    -2.6474     0.0000    16.0000 </r>
       <r>    -2.6046     0.0000    16.0000 </r>
       <r>    -2.5617     0.0000    16.0000 </r>
       <r>    -2.5189     0.0000    16.0000 </r>
       <r>    -2.4760     0.0000    16.0000 </r>
       <r>    -2.4332     0.0000    16.0000 </r>
       <r>    -2.3903     0.0000    16.0000 </r>
       <r>    -2.3475     0.0000    16.0000 </r>
       <r>    -2.3046     0.0000    16.0000 </r>
       <r>    -2.2618     0.0000    16.0000 </r>
       <r>    -2.2189     0.0000    16.0000 </r>
       <r>    -2.1760     0.0000    16.0000 </r>
       <r>    -2.1332     0.0000    16.0000 </r>
       <r>    -2.0903     0.0000    16.0000 </r>
       <r>    -2.0475     0.0000    16.0000 </r>
       <r>    -2.0046     0.0000    16.0000 </r>
       <r>    -1.9618     0.0000    16.0000 </r>
       <r>    -1.9189     0.0000    16.0000 </r>
       <r>    -1.8761     0.0000    16.0000 </r>
       <r>    -1.8332     0.0000    16.0000 </r>
       <r>    -1.7903     0.0000    16.0000 </r>
       <r>    -1.7475     0.0000    16.0000 </r>
       <r>    -1.7046     0.0000    16.0000 </r>
       <r>    -1.6618     0.0000    16.0000 </r>
       <r>    -1.6189     0.0000    16.0000 </r>
       <r>    -1.5761     0.0000    16.0000 </r>
       <r>    -1.5332     0.0000    16.0000 </r>
       <r>    -1.4904     0.0000    16.0000 </r>
       <r>    -1.4475     0.0000    16.0000 </r>
       <r>    -1.4047     0.0000    16.0000 </r>
       <r>    -1.3618     0.0000    16.0000 </r>
       <r>    -1.3189     0.0000    16.0000 </r>
       <r>    -1.2761     0.0000    16.0000 </r>
       <r>    -1.2332     0.0000    16.0000 </r>
       <r>    -1.1904     0.0000    16.0000 </r>
       <r>    -1.1475     0.0000    16.0000 </r>
       <r>    -1.1047     0.0000    16.0000 </r>
       <r>    -1.0618     0.0000    16.0000 </r>
       <r>    -1.0190     0.0000    16.0000 </r>
       <r>    -0.9761     0.0000    16.0000 </r>
       <r>    -0.9333     0.0000    16.0000 </r>
       <r>    -0.8904     0.0000    16.0000 </r>
       <r>    -0.8475     0.0000    16.0000 </r>
       <r>    -0.8047     0.0001    16.0000 </r>
       <r>    -0.7618     0.0003    16.0000 </r>
       <r>    -0.7190     0.0012    16.0001 </r>
       <r>    -0.6761     0.0042    16.0002 </r>
       <r>    -0.6333     0.0138    16.0008 </r>
       <r>    -0.5904     0.0410    16.0026 </r>
       <r>    -0.5476     0.1117    16.0074 </r>
       <r>    -0.5047     0.2778    16.0193 </r>
       <r>    -0.4619     0.6304    16.0463 </r>
       <r>    -0.4190     1.3061    16.1023 </r>
       <r>    -0.3761     2.4701    16.2081 </r>
       <r>    -0.3333     4.2647    16.3909 </r>
       <r>    -0.2904     6.7218    16.6790 </r>
       <r>    -0.2476     9.6716    17.0934 </r>
       <r>    -0.2047    12.7041    17.6379 </r>
       <r>    -0.1619    15.2344    18.2907 </r>
       <r>    -0.1190    16.6788    19.0055 </r>
       <r>    -0.0762    16.6741    19.7201 </r>
       <r>    -0.0333    15.2298    20.3727 </r>
       <r>     0.0096    12.7303    20.9183 </r>
       <r>     0.0524     9.7875    21.3377 </r>
       <r>     0.0953     7.0253    21.6388 </r>
       <r>     0.1381     4.9041    21.8490 </r>
       <r>     0.1810     3.6428    22.0051 </r>
       <r>     0.2238     3.2338    22.1437 </r>
       <r>     0.2667     3.5032    22.2938 </r>
       <r>     0.3095     4.1755    22.4727 </r>
       <r>     0.3524     4.9345    22.6842 </r>
       <r>     0.3952     5.4868    22.9193 </r>
       <r>     0.4381     5.6266    23.1605 </r>
       <r>     0.4810     5.2851    23.3869 </r>
       <r>     0.5238     4.5370    23.5814 </r>
       <r>     0.5667     3.5568    23.7338 </r>
       <r>     0.6095     2.5458    23.8429 </r>
       <r>     0.6524     1.6635    23.9142 </r>
       <r>     0.6952     0.9923    23.9567 </r>
       <r>     0.7381     0.5404    23.9799 </r>
       <r>     0.7809     0.2686    23.9914 </r>
       <r>     0.8238     0.1219    23.9966 </r>
       <r>     0.8666     0.0505    23.9988 </r>
       <r>     0.9095     0.0191    23.9996 </r>
       <r>     0.9524     0.0066    23.9999 </r>
       <r>     0.9952     0.0021    24.0000 </r>
       <r>     1.0381     0.0006    24.0000 </r>
       <r>     1.0809     0.0002    24.0000 </r>
       <r>     1.1238     0.0000    24.0000 </r>
       <r>     1.1666     0.0000    24.0000 </r>
       <r>     1.2095     0.0000    24.0000 </r>
       <r>     1.2523     0.0000    24.0000 </r>
       <r>     1.2952     0.0000    24.0000 </r>
       <r>     1.3381     0.0000    24.0000 </r>
       <r>     1.3809     0.0000    24.0000 </r>
       <r>     1.4238     0.0000    24.0000 </r>
       <r>     1.4666     0.0000    24.0000 </r>
       <r>     1.5095     0.0000    24.0000 </r>
       <r>     1.5523     0.0000    24.0000 </r>
       <r>     1.5952     0.0000    24.0000 </r>
       <r>     1.6380     0.0000    24.0000 </r>
       <r>     1.6809     0.0000    24.0000 </r>
       <r>     1.7237     0.0000    24.0000 </r>
       <r>     1.7666     0.0000    24.0000 </r>
       <r>     1.8095     0.0000    24.0000 </r>
       <r>     1.8523     0.0000    24.0000 </r>
       <r>     1.8952     0.0000    24.0000 </r>
       <r>     1.9380     0.0000    24.0000 </r>
       <r>     1.9809     0.0000    24.0000 </r>
       <r>     2.0237     0.0000    24.0000 </r>
       <r>     2.0666     0.0000    24.0000 </r>
       <r>     2.1094     0.0000    24.0000 </r>
       <r>     2.1523     0.0000    24.0000 </r>
       <r>     2.1951     0.0000    24.0000 </r>
       <r>     2.2380     0.0000    24.0000 </r>
       <r>     2.2809     0.0000    24.0000 </r>
       <r>     2.3237     0.0000    24.0000 </r>
       <r>     2.3666     0.0000    24.0000 </r>
       <r>     2.4094     0.0000    24.0000 </r>
      </set>
     </set>
    </array>
   </total>
  </dos>
 </calculation>
 <structure name="finalpos" >
  <crystal>
   <varray name="basis" >
    <v>      15.00000000       0.00000000       0.00000000 </v>
    <v>       0.00000000      15.00000000       0.00000000 </v>
    <v>       0.00000000       0.00000000      16.80000000 </v>
   </varray>
   <i name="volume">   3780.00000000 </i>
   <varray name="rec_basis" >
    <v>       0.06666667      -0.00000000       0.00000000 </v>
    <v>       0.00000000       0.06666667       0.00000000 </v>
    <v>      -0.00000000      -0.00000000       0.05952381 </v>
   </varray>
  </crystal>
  <varray name="positions" >
   <v>       0.00000000       0.00000000       0.00000000 </v>
   <v>       0.00000000       0.00000000       0.12500000 </v>
   <v>       0.00000000       0.00000000       0.25000000 </v>
   <v>       0.00000000       0.00000000       0.37500000 </v>
   <v>       0.00000000       0.00000000       0.50000000 </v>
   <v>       0.00000000       0.00000000       0.62500000 </v>
   <v>       0.00000000       0.00000000       0.75000000 </v>
   <v>       0.00000000       0.00000000       0.87500000 </v>
  </varray>
 </structure>
</modeling>
