   8   8   0   0
  0.1125000E+03  0.1500000E-08  0.1500000E-08  0.4000000E-09  0.5000000E-15
  1.000000000000000E-004
  CAR 
 unknown system                          
      3.14023773    -35.40136976  301     -3.83185693      1.00000000
    -35.401  0.0000E+00  0.0000E+00  0.0000E+00  0.0000E+00
    -35.273  0.0000E+00  0.0000E+00  0.0000E+00  0.0000E+00
    -35.144  0.0000E+00  0.0000E+00  0.0000E+00  0.0000E+00
    -35.016  0.0000E+00  0.0000E+00  0.0000E+00  0.0000E+00
    -34.887  0.0000E+00  0.0000E+00  0.0000E+00  0.0000E+00
    -34.759  0.0000E+00  0.0000E+00  0.0000E+00  0.0000E+00
    -34.631  0.0000E+00  0.0000E+00  0.0000E+00  0.0000E+00
    -34.502  0.5531E-13  0.5531E-13  0.7105E-14  0.7105E-14
    -34.374  0.4831E-10  0.4831E-10  0.6214E-11  0.6214E-11
    -34.245  0.1885E-07  0.1885E-07  0.2428E-08  0.2428E-08
    -34.117  0.3283E-05  0.3282E-05  0.4241E-06  0.4241E-06
    -33.988  0.2562E-03  0.2562E-03  0.3334E-04  0.3334E-04
    -33.860  0.9014E-02  0.9014E-02  0.1191E-02  0.1191E-02
    -33.731  0.1439E+00  0.1439E+00  0.1968E-01  0.1967E-01
    -33.603  0.1049E+01  0.1049E+01  0.1544E+00  0.1544E+00
    -33.474  0.3516E+01  0.3516E+01  0.6061E+00  0.6061E+00
    -33.346  0.5444E+01  0.5444E+01  0.1306E+01  0.1306E+01
    -33.217  0.3902E+01  0.3902E+01  0.1807E+01  0.1807E+01
    -33.089  0.1292E+01  0.1292E+01  0.1973E+01  0.1973E+01
    -32.960  0.1970E+00  0.1970E+00  0.1998E+01  0.1998E+01
    -32.832  0.1373E-01  0.1373E-01  0.2000E+01  0.2000E+01
    -32.703  0.4343E-03  0.4343E-03  0.2000E+01  0.2000E+01
    -32.575  0.6199E-05  0.6199E-05  0.2000E+01  0.2000E+01
    -32.447  0.3969E-07  0.3969E-07  0.2000E+01  0.2000E+01
    -32.318  0.1135E-09  0.1135E-09  0.2000E+01  0.2000E+01
    -32.190  0.1452E-12  0.1452E-12  0.2000E+01  0.2000E+01
    -32.061  0.0000E+00  0.0000E+00  0.2000E+01  0.2000E+01
    -31.933  0.0000E+00  0.0000E+00  0.2000E+01  0.2000E+01
    -31.804  0.0000E+00  0.0000E+00  0.2000E+01  0.2000E+01
    -31.676  0.0000E+00  0.0000E+00  0.2000E+01  0.2000E+01
    -31.547  0.0000E+00  0.0000E+00  0.2000E+01  0.2000E+01
    -31.419  0.0000E+00  0.0000E+00  0.2000E+01  0.2000E+01
    -31.290  0.0000E+00  0.0000E+00  0.2000E+01  0.2000E+01
    -31.162  0.0000E+00  0.0000E+00  0.2000E+01  0.2000E+01
    -31.033  0.0000E+00  0.0000E+00  0.2000E+01  0.2000E+01
    -30.905  0.0000E+00  0.0000E+00  0.2000E+01  0.2000E+01
    -30.776  0.0000E+00  0.0000E+00  0.2000E+01  0.2000E+01
    -30.648  0.0000E+00  0.0000E+00  0.2000E+01  0.2000E+01
    -30.519  0.0000E+00  0.0000E+00  0.2000E+01  0.2000E+01
    -30.391  0.0000E+00  0.0000E+00  0.2000E+01  0.2000E+01
    -30.262  0.0000E+00  0.0000E+00  0.2000E+01  0.2000E+01
    -30.134  0.0000E+00  0.0000E+00  0.2000E+01  0.2000E+01
    -30.006  0.0000E+00  0.0000E+00  0.2000E+01  0.2000E+01
    -29.877  0.0000E+00  0.0000E+00  0.2000E+01  0.2000E+01
    -29.749  0.0000E+00  0.0000E+00  0.2000E+01  0.2000E+01
    -29.620  0.0000E+00  0.0000E+00  0.2000E+01  0.2000E+01
    -29.492  0.0000E+00  0.0000E+00  0.2000E+01  0.2000E+01
    -29.363  0.0000E+00  0.0000E+00  0.2000E+01  0.2000E+01
    -29.235  0.0000E+00  0.0000E+00  0.2000E+01  0.2000E+01
    -29.106  0.0000E+00  0.0000E+00  0.2000E+01  0.2000E+01
    -28.978  0.0000E+00  0.0000E+00  0.2000E+01  0.2000E+01
    -28.849  0.0000E+00  0.0000E+00  0.2000E+01  0.2000E+01
    -28.721  0.0000E+00  0.0000E+00  0.2000E+01  0.2000E+01
    -28.592  0.0000E+00  0.0000E+00  0.2000E+01  0.2000E+01
    -28.464  0.0000E+00  0.0000E+00  0.2000E+01  0.2000E+01
    -28.335  0.0000E+00  0.0000E+00  0.2000E+01  0.2000E+01
    -28.207  0.0000E+00  0.0000E+00  0.2000E+01  0.2000E+01
    -28.078  0.0000E+00  0.0000E+00  0.2000E+01  0.2000E+01
    -27.950  0.0000E+00  0.0000E+00  0.2000E+01  0.2000E+01
    -27.822  0.0000E+00  0.0000E+00  0.2000E+01  0.2000E+01
    -27.693  0.0000E+00  0.0000E+00  0.2000E+01  0.2000E+01
    -27.565  0.0000E+00  0.0000E+00  0.2000E+01  0.2000E+01
    -27.436  0.0000E+00  0.0000E+00  0.2000E+01  0.2000E+01
    -27.308  0.0000E+00  0.0000E+00  0.2000E+01  0.2000E+01
    -27.179  0.0000E+00  0.0000E+00  0.2000E+01  0.2000E+01
    -27.051  0.0000E+00  0.0000E+00  0.2000E+01  0.2000E+01
    -26.922  0.0000E+00  0.0000E+00  0.2000E+01  0.2000E+01
    -26.794  0.0000E+00  0.0000E+00  0.2000E+01  0.2000E+01
    -26.665  0.0000E+00  0.0000E+00  0.2000E+01  0.2000E+01
    -26.537  0.0000E+00  0.0000E+00  0.2000E+01  0.2000E+01
    -26.408  0.0000E+00  0.0000E+00  0.2000E+01  0.2000E+01
    -26.280  0.0000E+00  0.0000E+00  0.2000E+01  0.2000E+01
    -26.151  0.0000E+00  0.0000E+00  0.2000E+01  0.2000E+01
    -26.023  0.0000E+00  0.0000E+00  0.2000E+01  0.2000E+01
    -25.894  0.0000E+00  0.0000E+00  0.2000E+01  0.2000E+01
    -25.766  0.0000E+00  0.0000E+00  0.2000E+01  0.2000E+01
    -25.637  0.0000E+00  0.0000E+00  0.2000E+01  0.2000E+01
    -25.509  0.0000E+00  0.0000E+00  0.2000E+01  0.2000E+01
    -25.381  0.0000E+00  0.0000E+00  0.2000E+01  0.2000E+01
    -25.252  0.0000E+00  0.0000E+00  0.2000E+01  0.2000E+01
    -25.124  0.1020E-12  0.1020E-12  0.2000E+01  0.2000E+01
    -24.995  0.8959E-10  0.8959E-10  0.2000E+01  0.2000E+01
    -24.867  0.3530E-07  0.3530E-07  0.2000E+01  0.2000E+01
    -24.738  0.6205E-05  0.6205E-05  0.2000E+01  0.2000E+01
    -24.610  0.4889E-03  0.4889E-03  0.2000E+01  0.2000E+01
    -24.481  0.1736E-01  0.1736E-01  0.2002E+01  0.2002E+01
    -24.353  0.2797E+00  0.2797E+00  0.2038E+01  0.2038E+01
    -24.224  0.2058E+01  0.2058E+01  0.2303E+01  0.2303E+01
    -24.096  0.6963E+01  0.6963E+01  0.3197E+01  0.3197E+01
    -23.967  0.1088E+02  0.1088E+02  0.4595E+01  0.4595E+01
    -23.839  0.7870E+01  0.7870E+01  0.5606E+01  0.5606E+01
    -23.710  0.2631E+01  0.2631E+01  0.5944E+01  0.5944E+01
    -23.582  0.4047E+00  0.4047E+00  0.5996E+01  0.5996E+01
    -23.453  0.2846E-01  0.2846E-01  0.6000E+01  0.6000E+01
    -23.325  0.9091E-03  0.9091E-03  0.6000E+01  0.6000E+01
    -23.197  0.1310E-04  0.1310E-04  0.6000E+01  0.6000E+01
    -23.068  0.8468E-07  0.8468E-07  0.6000E+01  0.6000E+01
    -22.940  0.2444E-09  0.2444E-09  0.6000E+01  0.6000E+01
    -22.811  0.3146E-12  0.3146E-12  0.6000E+01  0.6000E+01
    -22.683  0.0000E+00  0.0000E+00  0.6000E+01  0.6000E+01
    -22.554  0.0000E+00  0.0000E+00  0.6000E+01  0.6000E+01
    -22.426  0.0000E+00  0.0000E+00  0.6000E+01  0.6000E+01
    -22.297  0.0000E+00  0.0000E+00  0.6000E+01  0.6000E+01
    -22.169  0.0000E+00  0.0000E+00  0.6000E+01  0.6000E+01
    -22.040  0.0000E+00  0.0000E+00  0.6000E+01  0.6000E+01
    -21.912  0.0000E+00  0.0000E+00  0.6000E+01  0.6000E+01
    -21.783  0.0000E+00  0.0000E+00  0.6000E+01  0.6000E+01
    -21.655  0.0000E+00  0.0000E+00  0.6000E+01  0.6000E+01
    -21.526  0.0000E+00  0.0000E+00  0.6000E+01  0.6000E+01
    -21.398  0.0000E+00  0.0000E+00  0.6000E+01  0.6000E+01
    -21.269  0.0000E+00  0.0000E+00  0.6000E+01  0.6000E+01
    -21.141  0.0000E+00  0.0000E+00  0.6000E+01  0.6000E+01
    -21.013  0.0000E+00  0.0000E+00  0.6000E+01  0.6000E+01
    -20.884  0.0000E+00  0.0000E+00  0.6000E+01  0.6000E+01
    -20.756  0.0000E+00  0.0000E+00  0.6000E+01  0.6000E+01
    -20.627  0.0000E+00  0.0000E+00  0.6000E+01  0.6000E+01
    -20.499  0.0000E+00  0.0000E+00  0.6000E+01  0.6000E+01
    -20.370  0.0000E+00  0.0000E+00  0.6000E+01  0.6000E+01
    -20.242  0.0000E+00  0.0000E+00  0.6000E+01  0.6000E+01
    -20.113  0.0000E+00  0.0000E+00  0.6000E+01  0.6000E+01
    -19.985  0.0000E+00  0.0000E+00  0.6000E+01  0.6000E+01
    -19.856  0.0000E+00  0.0000E+00  0.6000E+01  0.6000E+01
    -19.728  0.0000E+00  0.0000E+00  0.6000E+01  0.6000E+01
    -19.599  0.0000E+00  0.0000E+00  0.6000E+01  0.6000E+01
    -19.471  0.0000E+00  0.0000E+00  0.6000E+01  0.6000E+01
    -19.342  0.0000E+00  0.0000E+00  0.6000E+01  0.6000E+01
    -19.214  0.0000E+00  0.0000E+00  0.6000E+01  0.6000E+01
    -19.085  0.0000E+00  0.0000E+00  0.6000E+01  0.6000E+01
    -18.957  0.0000E+00  0.0000E+00  0.6000E+01  0.6000E+01
    -18.828  0.0000E+00  0.0000E+00  0.6000E+01  0.6000E+01
    -18.700  0.0000E+00  0.0000E+00  0.6000E+01  0.6000E+01
    -18.572  0.0000E+00  0.0000E+00  0.6000E+01  0.6000E+01
    -18.443  0.0000E+00  0.0000E+00  0.6000E+01  0.6000E+01
    -18.315  0.0000E+00  0.0000E+00  0.6000E+01  0.6000E+01
    -18.186  0.0000E+00  0.0000E+00  0.6000E+01  0.6000E+01
    -18.058  0.0000E+00  0.0000E+00  0.6000E+01  0.6000E+01
    -17.929  0.0000E+00  0.0000E+00  0.6000E+01  0.6000E+01
    -17.801  0.0000E+00  0.0000E+00  0.6000E+01  0.6000E+01
    -17.672  0.0000E+00  0.0000E+00  0.6000E+01  0.6000E+01
    -17.544  0.0000E+00  0.0000E+00  0.6000E+01  0.6000E+01
    -17.415  0.0000E+00  0.0000E+00  0.6000E+01  0.6000E+01
    -17.287  0.0000E+00  0.0000E+00  0.6000E+01  0.6000E+01
    -17.158  0.0000E+00  0.0000E+00  0.6000E+01  0.6000E+01
    -17.030  0.0000E+00  0.0000E+00  0.6000E+01  0.6000E+01
    -16.901  0.0000E+00  0.0000E+00  0.6000E+01  0.6000E+01
    -16.773  0.0000E+00  0.0000E+00  0.6000E+01  0.6000E+01
    -16.644  0.0000E+00  0.0000E+00  0.6000E+01  0.6000E+01
    -16.516  0.0000E+00  0.0000E+00  0.6000E+01  0.6000E+01
    -16.388  0.0000E+00  0.0000E+00  0.6000E+01  0.6000E+01
    -16.259  0.0000E+00  0.0000E+00  0.6000E+01  0.6000E+01
    -16.131  0.0000E+00  0.0000E+00  0.6000E+01  0.6000E+01
    -16.002  0.0000E+00  0.0000E+00  0.6000E+01  0.6000E+01
    -15.874  0.0000E+00  0.0000E+00  0.6000E+01  0.6000E+01
    -15.745  0.0000E+00  0.0000E+00  0.6000E+01  0.6000E+01
    -15.617  0.0000E+00  0.0000E+00  0.6000E+01  0.6000E+01
    -15.488  0.0000E+00  0.0000E+00  0.6000E+01  0.6000E+01
    -15.360  0.0000E+00  0.0000E+00  0.6000E+01  0.6000E+01
    -15.231  0.0000E+00  0.0000E+00  0.6000E+01  0.6000E+01
    -15.103  0.0000E+00  0.0000E+00  0.6000E+01  0.6000E+01
    -14.974  0.0000E+00  0.0000E+00  0.6000E+01  0.6000E+01
    -14.846  0.0000E+00  0.0000E+00  0.6000E+01  0.6000E+01
    -14.717  0.0000E+00  0.0000E+00  0.6000E+01  0.6000E+01
    -14.589  0.0000E+00  0.0000E+00  0.6000E+01  0.6000E+01
    -14.460  0.0000E+00  0.0000E+00  0.6000E+01  0.6000E+01
    -14.332  0.0000E+00  0.0000E+00  0.6000E+01  0.6000E+01
    -14.203  0.0000E+00  0.0000E+00  0.6000E+01  0.6000E+01
    -14.075  0.0000E+00  0.0000E+00  0.6000E+01  0.6000E+01
    -13.947  0.0000E+00  0.0000E+00  0.6000E+01  0.6000E+01
    -13.818  0.0000E+00  0.0000E+00  0.6000E+01  0.6000E+01
    -13.690  0.0000E+00  0.0000E+00  0.6000E+01  0.6000E+01
    -13.561  0.0000E+00  0.0000E+00  0.6000E+01  0.6000E+01
    -13.433  0.0000E+00  0.0000E+00  0.6000E+01  0.6000E+01
    -13.304  0.0000E+00  0.0000E+00  0.6000E+01  0.6000E+01
    -13.176  0.0000E+00  0.0000E+00  0.6000E+01  0.6000E+01
    -13.047  0.0000E+00  0.0000E+00  0.6000E+01  0.6000E+01
    -12.919  0.0000E+00  0.0000E+00  0.6000E+01  0.6000E+01
    -12.790  0.0000E+00  0.0000E+00  0.6000E+01  0.6000E+01
    -12.662  0.0000E+00  0.0000E+00  0.6000E+01  0.6000E+01
    -12.533  0.0000E+00  0.0000E+00  0.6000E+01  0.6000E+01
    -12.405  0.0000E+00  0.0000E+00  0.6000E+01  0.6000E+01
    -12.276  0.0000E+00  0.0000E+00  0.6000E+01  0.6000E+01
    -12.148  0.0000E+00  0.0000E+00  0.6000E+01  0.6000E+01
    -12.019  0.0000E+00  0.0000E+00  0.6000E+01  0.6000E+01
    -11.891  0.0000E+00  0.0000E+00  0.6000E+01  0.6000E+01
    -11.763  0.0000E+00  0.0000E+00  0.6000E+01  0.6000E+01
    -11.634  0.0000E+00  0.0000E+00  0.6000E+01  0.6000E+01
    -11.506  0.0000E+00  0.0000E+00  0.6000E+01  0.6000E+01
    -11.377  0.0000E+00  0.0000E+00  0.6000E+01  0.6000E+01
    -11.249  0.0000E+00  0.0000E+00  0.6000E+01  0.6000E+01
    -11.120  0.0000E+00  0.0000E+00  0.6000E+01  0.6000E+01
    -10.992  0.0000E+00  0.0000E+00  0.6000E+01  0.6000E+01
    -10.863  0.0000E+00  0.0000E+00  0.6000E+01  0.6000E+01
    -10.735  0.0000E+00  0.0000E+00  0.6000E+01  0.6000E+01
    -10.606  0.0000E+00  0.0000E+00  0.6000E+01  0.6000E+01
    -10.478  0.0000E+00  0.0000E+00  0.6000E+01  0.6000E+01
    -10.349  0.0000E+00  0.0000E+00  0.6000E+01  0.6000E+01
    -10.221  0.0000E+00  0.0000E+00  0.6000E+01  0.6000E+01
    -10.092  0.0000E+00  0.0000E+00  0.6000E+01  0.6000E+01
     -9.964  0.0000E+00  0.0000E+00  0.6000E+01  0.6000E+01
     -9.835  0.0000E+00  0.0000E+00  0.6000E+01  0.6000E+01
     -9.707  0.0000E+00  0.0000E+00  0.6000E+01  0.6000E+01
     -9.578  0.0000E+00  0.0000E+00  0.6000E+01  0.6000E+01
     -9.450  0.0000E+00  0.0000E+00  0.6000E+01  0.6000E+01
     -9.322  0.0000E+00  0.0000E+00  0.6000E+01  0.6000E+01
     -9.193  0.0000E+00  0.0000E+00  0.6000E+01  0.6000E+01
     -9.065  0.0000E+00  0.0000E+00  0.6000E+01  0.6000E+01
     -8.936  0.0000E+00  0.0000E+00  0.6000E+01  0.6000E+01
     -8.808  0.0000E+00  0.0000E+00  0.6000E+01  0.6000E+01
     -8.679  0.0000E+00  0.0000E+00  0.6000E+01  0.6000E+01
     -8.551  0.0000E+00  0.0000E+00  0.6000E+01  0.6000E+01
     -8.422  0.0000E+00  0.0000E+00  0.6000E+01  0.6000E+01
     -8.294  0.0000E+00  0.0000E+00  0.6000E+01  0.6000E+01
     -8.165  0.0000E+00  0.0000E+00  0.6000E+01  0.6000E+01
     -8.037  0.0000E+00  0.0000E+00  0.6000E+01  0.6000E+01
     -7.908  0.0000E+00  0.0000E+00  0.6000E+01  0.6000E+01
     -7.780  0.0000E+00  0.0000E+00  0.6000E+01  0.6000E+01
     -7.651  0.0000E+00  0.0000E+00  0.6000E+01  0.6000E+01
     -7.523  0.0000E+00  0.0000E+00  0.6000E+01  0.6000E+01
     -7.394  0.0000E+00  0.0000E+00  0.6000E+01  0.6000E+01
     -7.266  0.0000E+00  0.0000E+00  0.6000E+01  0.6000E+01
     -7.138  0.0000E+00  0.0000E+00  0.6000E+01  0.6000E+01
     -7.009  0.0000E+00  0.0000E+00  0.6000E+01  0.6000E+01
     -6.881  0.0000E+00  0.0000E+00  0.6000E+01  0.6000E+01
     -6.752  0.0000E+00  0.0000E+00  0.6000E+01  0.6000E+01
     -6.624  0.0000E+00  0.0000E+00  0.6000E+01  0.6000E+01
     -6.495  0.0000E+00  0.0000E+00  0.6000E+01  0.6000E+01
     -6.367  0.0000E+00  0.0000E+00  0.6000E+01  0.6000E+01
     -6.238  0.0000E+00  0.0000E+00  0.6000E+01  0.6000E+01
     -6.110  0.0000E+00  0.0000E+00  0.6000E+01  0.6000E+01
     -5.981  0.0000E+00  0.0000E+00  0.6000E+01  0.6000E+01
     -5.853  0.0000E+00  0.0000E+00  0.6000E+01  0.6000E+01
     -5.724  0.0000E+00  0.0000E+00  0.6000E+01  0.6000E+01
     -5.596  0.0000E+00  0.0000E+00  0.6000E+01  0.6000E+01
     -5.467  0.0000E+00  0.0000E+00  0.6000E+01  0.6000E+01
     -5.339  0.0000E+00  0.0000E+00  0.6000E+01  0.6000E+01
     -5.210  0.0000E+00  0.0000E+00  0.6000E+01  0.6000E+01
     -5.082  0.0000E+00  0.0000E+00  0.6000E+01  0.6000E+01
     -4.953  0.3457E-13  0.3457E-13  0.6000E+01  0.6000E+01
     -4.825  0.3383E-10  0.3383E-10  0.6000E+01  0.6000E+01
     -4.697  0.1506E-07  0.1506E-07  0.6000E+01  0.6000E+01
     -4.568  0.2990E-05  0.2990E-05  0.6000E+01  0.6000E+01
     -4.440  0.2659E-03  0.2659E-03  0.6000E+01  0.6000E+01
     -4.311  0.1065E-01  0.1065E-01  0.6001E+01  0.6001E+01
     -4.183  0.1933E+00  0.1933E+00  0.6026E+01  0.6026E+01
     -4.054  0.1600E+01  0.1600E+01  0.6232E+01  0.6232E+01
     -3.926  0.6086E+01  0.6086E+01  0.7014E+01  0.7014E+01
     -3.797  0.1069E+02  0.1069E+02  0.8387E+01  0.8387E+01
     -3.669  0.8684E+01  0.8684E+01  0.9502E+01  0.9502E+01
     -3.540  0.3263E+01  0.3263E+01  0.9922E+01  0.9922E+01
     -3.412  0.5646E+00  0.5647E+00  0.9994E+01  0.9994E+01
     -3.283  0.4472E-01  0.4472E-01  0.1000E+02  0.1000E+02
     -3.155  0.1612E-02  0.1612E-02  0.1000E+02  0.1000E+02
     -3.026  0.1465E-03  0.1466E-03  0.1000E+02  0.1000E+02
     -2.898  0.4912E-02  0.4915E-02  0.1000E+02  0.1000E+02
     -2.769  0.9087E-01  0.9091E-01  0.1001E+02  0.1001E+02
     -2.641  0.7669E+00  0.7672E+00  0.1011E+02  0.1011E+02
     -2.513  0.2973E+01  0.2973E+01  0.1049E+02  0.1049E+02
     -2.384  0.5319E+01  0.5319E+01  0.1118E+02  0.1118E+02
     -2.256  0.4404E+01  0.4404E+01  0.1174E+02  0.1174E+02
     -2.127  0.1687E+01  0.1686E+01  0.1196E+02  0.1196E+02
     -1.999  0.2974E+00  0.2973E+00  0.1200E+02  0.1200E+02
     -1.870  0.2402E-01  0.2400E-01  0.1200E+02  0.1200E+02
     -1.742  0.8816E-03  0.8810E-03  0.1200E+02  0.1200E+02
     -1.613  0.1462E-04  0.1460E-04  0.1200E+02  0.1200E+02
     -1.485  0.1088E-06  0.1087E-06  0.1200E+02  0.1200E+02
     -1.356  0.3619E-09  0.3615E-09  0.1200E+02  0.1200E+02
     -1.228  0.5358E-12  0.5358E-12  0.1200E+02  0.1200E+02
     -1.099  0.0000E+00  0.0000E+00  0.1200E+02  0.1200E+02
     -0.971  0.3197E-13  0.2852E-13  0.1200E+02  0.1200E+02
     -0.842  0.2982E-10  0.2683E-10  0.1200E+02  0.1200E+02
     -0.714  0.1246E-07  0.1136E-07  0.1200E+02  0.1200E+02
     -0.585  0.2334E-05  0.2157E-05  0.1200E+02  0.1200E+02
     -0.457  0.1977E-03  0.1851E-03  0.1200E+02  0.1200E+02
     -0.329  0.7664E-02  0.7274E-02  0.1200E+02  0.1200E+02
     -0.200  0.1388E+00  0.1335E+00  0.1202E+02  0.1202E+02
     -0.072  0.1212E+01  0.1182E+01  0.1217E+02  0.1217E+02
      0.057  0.5399E+01  0.5335E+01  0.1287E+02  0.1286E+02
      0.185  0.1332E+02  0.1330E+02  0.1458E+02  0.1456E+02
      0.314  0.1997E+02  0.2006E+02  0.1714E+02  0.1714E+02
      0.442  0.1936E+02  0.1943E+02  0.1963E+02  0.1964E+02
      0.571  0.1227E+02  0.1227E+02  0.2121E+02  0.2121E+02
      0.699  0.4915E+01  0.4880E+01  0.2184E+02  0.2184E+02
      0.828  0.1346E+01  0.1305E+01  0.2201E+02  0.2201E+02
      0.956  0.1537E+01  0.1423E+01  0.2221E+02  0.2219E+02
      1.085  0.4066E+01  0.3909E+01  0.2273E+02  0.2269E+02
      1.213  0.5422E+01  0.5444E+01  0.2343E+02  0.2339E+02
      1.342  0.3353E+01  0.3516E+01  0.2386E+02  0.2385E+02
      1.470  0.9576E+00  0.1049E+01  0.2398E+02  0.2398E+02
      1.599  0.1257E+00  0.1439E+00  0.2400E+02  0.2400E+02
      1.727  0.7535E-02  0.9014E-02  0.2400E+02  0.2400E+02
      1.856  0.2048E-03  0.2562E-03  0.2400E+02  0.2400E+02
      1.984  0.2508E-05  0.3283E-05  0.2400E+02  0.2400E+02
      2.112  0.1377E-07  0.1885E-07  0.2400E+02  0.2400E+02
      2.241  0.3371E-10  0.4831E-10  0.2400E+02  0.2400E+02
      2.369  0.3630E-13  0.5531E-13  0.2400E+02  0.2400E+02
      2.498  0.0000E+00  0.0000E+00  0.2400E+02  0.2400E+02
      2.626  0.0000E+00  0.0000E+00  0.2400E+02  0.2400E+02
      2.755  0.0000E+00  0.0000E+00  0.2400E+02  0.2400E+02
      2.883  0.0000E+00  0.0000E+00  0.2400E+02  0.2400E+02
      3.012  0.0000E+00  0.0000E+00  0.2400E+02  0.2400E+02
      3.140  0.0000E+00  0.0000E+00  0.2400E+02  0.2400E+02
