    8    8    1    2
  0.1125000E+03  0.1500000E-08  0.1500000E-08  0.4000000E-09  0.5000000E-15
  1.000000000000000E-004
  CAR 
 unknown system                          
      8      1     12
 
  0.0000000E+00  0.0000000E+00  0.0000000E+00  0.1000000E+01
    1      -33.401370    -33.401370   1.000000   1.000000
    2      -24.021390    -24.021390   1.000000   1.000000
    3      -24.021390    -24.021390   1.000000   1.000000
    4       -3.831858     -3.831857   0.500000   0.500000
    5       -3.831858     -3.831857   0.500000   0.500000
    6       -2.415525     -2.415546   0.000000   0.000000
    7        0.139670      0.141784   0.000000   0.000000
    8        0.231774      0.233278   0.000000   0.000000
    9        0.339484      0.338795   0.000000   0.000000
   10        0.339485      0.338795   0.000000   0.000000
   11        0.490290      0.489257   0.000000   0.000000
   12        1.133008      1.140238   0.000000   0.000000
