       N       E                     dE             d eps       ncg     rms          rms(c)
DAV:   1     0.348158327704E+02    0.34816E+02   -0.19715E+03    80   0.174E+02
DAV:   2     0.122084854294E+02   -0.22607E+02   -0.22488E+02    60   0.867E+01
DAV:   3     0.117409226922E+02   -0.46756E+00   -0.46042E+00    56   0.148E+01
DAV:   4     0.117324369778E+02   -0.84857E-02   -0.84690E-02    80   0.158E+00
DAV:   5     0.117323642761E+02   -0.72702E-04   -0.72291E-04    56   0.781E-02    0.110E+01
DAV:   6     0.136367346723E+02    0.19044E+01   -0.10361E+00    64   0.441E+00    0.642E+00
DAV:   7     0.142985445691E+02    0.66181E+00   -0.21211E+00    48   0.629E+00    0.416E-01
DAV:   8     0.143184634108E+02    0.19919E-01   -0.55076E-02    64   0.112E+00    0.178E-01
DAV:   9     0.143165876954E+02   -0.18757E-02   -0.18987E-03    56   0.252E-01    0.668E-02
DAV:  10     0.143153978711E+02   -0.11898E-02   -0.49909E-04    56   0.844E-02    0.487E-02
DAV:  11     0.143144203935E+02   -0.97748E-03   -0.23702E-03    48   0.118E-01    0.251E-02
DAV:  12     0.143138884184E+02   -0.53198E-03   -0.39379E-04    52   0.506E-02    0.200E-02
DAV:  13     0.143133743462E+02   -0.51407E-03   -0.38692E-04    48   0.564E-02    0.883E-03
DAV:  14     0.143132416755E+02   -0.13267E-03   -0.49481E-05    48   0.240E-02    0.663E-03
DAV:  15     0.143130872092E+02   -0.15447E-03   -0.84024E-05    48   0.307E-02    0.277E-03
DAV:  16     0.143130758865E+02   -0.11323E-04   -0.27848E-05    48   0.231E-02    0.169E-03
DAV:  17     0.143130471294E+02   -0.28757E-04   -0.12985E-05    48   0.161E-02    0.100E-03
DAV:  18     0.143130363176E+02   -0.10812E-04   -0.68711E-06    48   0.120E-02    0.372E-04
DAV:  19     0.143130335636E+02   -0.27541E-05   -0.56568E-07    48   0.367E-03    0.231E-04
DAV:  20     0.143130313455E+02   -0.22181E-05   -0.37432E-07    48   0.219E-03    0.123E-04
DAV:  21     0.143130309248E+02   -0.42069E-06   -0.75835E-08    48   0.125E-03
   1 F= 0.14313031E+02 E0= 0.14425869E+02  d E =-.225676E+00  mag=    -0.0000
