 vasp.5.4.4.18Apr17-6-g9f103f2a35 (build Aug 24 2024 05:40:03) complex          
  
 executed on           IFC22_IMPI date 2024.11.22  21:37:53
 running on    4 total cores
 distrk:  each k-point on    4 cores,    1 groups
 distr:  one band on NCORES_PER_BAND=   1 cores,    4 groups


--------------------------------------------------------------------------------------------------------


 INCAR:
 POTCAR:    PAW_PBE H 15Jun2001                   
 POTCAR:    PAW_PBE H 15Jun2001                   
   VRHFIN =H: ultrasoft test                                                    
   LEXCH  = PE                                                                  
   EATOM  =    12.4884 eV,    0.9179 Ry                                         
                                                                                
   TITEL  = PAW_PBE H 15Jun2001                                                 
   LULTRA =        F    use ultrasoft PP ?                                      
   IUNSCR =        0    unscreen: 0-lin 1-nonlin 2-no                           
   RPACOR =    0.000    partial core radius                                     
   POMASS =    1.000; ZVAL   =    1.000    mass and valenz                      
   RCORE  =    1.100    outmost cutoff radius                                   
   RWIGS  =    0.700; RWIGS  =    0.370    wigner-seitz radius (au A)           
   ENMAX  =  250.000; ENMIN  =  200.000 eV                                      
   RCLOC  =    0.701    cutoff for local pot                                    
   LCOR   =        T    correct aug charges                                     
   LPAW   =        T    paw PP                                                  
   EAUG   =  400.000                                                            
   RMAX   =    1.123    core radius for proj-oper                               
   RAUG   =    1.200    factor for augmentation sphere                          
   RDEP   =    1.112    radius for radial grids                                 
   RDEPT  =    0.926    core radius for aug-charge                              
                                                                                
   Atomic configuration                                                         
    2 entries                                                                   
     n  l   j            E        occ.                                          
     1  0  0.50        -6.4927   1.0000                                         
     2  1  0.50        -3.4015   0.0000                                         
   Description                                                                  
     l       E           TYP  RCUT    TYP  RCUT                                 
     0     -6.4927494     23  1.100                                             
     0      6.8029130     23  1.100                                             
     1     -4.0817478     23  1.100                                             
  local pseudopotential read in
  atomic valenz-charges read in
  non local Contribution for L=           0  read in
    real space projection operators read in
  non local Contribution for L=           0  read in
    real space projection operators read in
  non local Contribution for L=           1  read in
    real space projection operators read in
    PAW grid and wavefunctions read in
 
   number of l-projection  operators is LMAX  =           3
   number of lm-projection operators is LMMAX =           5
 
  PAW_PBE H 15Jun2001                   :
 energy of atom  1       EATOM=  -12.4884
 kinetic energy error for atom=    0.0426 (will be added to EATOM!!)
 
 
 POSCAR: H8                                      
  positions in direct lattice
  No initial velocities read in
 exchange correlation table for  LEXCH =        8
   RHO(1)=    0.500       N(1)  =     2000
   RHO(2)=  100.500       N(2)  =     4000
 


--------------------------------------------------------------------------------------------------------


 ion  position               nearest neighbor table
   1  0.000  0.000  0.000-   2 0.50   8 0.50
   2  0.000  0.000  0.125-   1 0.50   3 0.50
   3  0.000  0.000  0.250-   2 0.50   4 0.50
   4  0.000  0.000  0.375-   3 0.50   5 0.50
   5  0.000  0.000  0.500-   4 0.50   6 0.50
   6  0.000  0.000  0.625-   5 0.50   7 0.50
   7  0.000  0.000  0.750-   6 0.50   8 0.50
   8  0.000  0.000  0.875-   1 0.50   7 0.50
 
  LATTYP: Found a simple tetragonal cell.
 ALAT       =    15.0000000000
 C/A-ratio  =     0.2666666667
  
  Lattice vectors:
  
 A1 = (  15.0000000000,   0.0000000000,   0.0000000000)
 A2 = (   0.0000000000,  15.0000000000,   0.0000000000)
 A3 = (   0.0000000000,   0.0000000000,   4.0000000000)


Analysis of symmetry for initial positions (statically):
=====================================================================
 Subroutine PRICEL returns following result:
 
  LATTYP: Found a simple tetragonal cell.
 ALAT       =    15.0000000000
 C/A-ratio  =     0.0333333333
  
  Lattice vectors:
  
 A1 = (  15.0000000000,   0.0000000000,   0.0000000000)
 A2 = (   0.0000000000,  15.0000000000,   0.0000000000)
 A3 = (   0.0000000000,   0.0000000000,   0.5000000000)
 
   8 primitive cells build up your supercell.
 

 Routine SETGRP: Setting up the symmetry group for a 
 simple tetragonal supercell.


 Subroutine GETGRP returns: Found 16 space group operations
 (whereof 16 operations were pure point group operations)
 out of a pool of 16 trial point group operations.


The static configuration has the point symmetry D_4h.


Analysis of symmetry for dynamics (positions and initial velocities):
=====================================================================
 Subroutine PRICEL returns following result:
 
  LATTYP: Found a simple tetragonal cell.
 ALAT       =    15.0000000000
 C/A-ratio  =     0.0333333333
  
  Lattice vectors:
  
 A1 = (  15.0000000000,   0.0000000000,   0.0000000000)
 A2 = (   0.0000000000,  15.0000000000,   0.0000000000)
 A3 = (   0.0000000000,   0.0000000000,   0.5000000000)
 
   8 primitive cells build up your supercell.
 

 Routine SETGRP: Setting up the symmetry group for a 
 simple tetragonal supercell.


 Subroutine GETGRP returns: Found 16 space group operations
 (whereof 16 operations were pure point group operations)
 out of a pool of 16 trial point group operations.


The dynamic configuration has the point symmetry D_4h.


Analysis of structural, dynamic, and magnetic symmetry:
=====================================================================
 Subroutine PRICEL returns following result:
 
  LATTYP: Found a simple tetragonal cell.
 ALAT       =    15.0000000000
 C/A-ratio  =     0.0333333333
  
  Lattice vectors:
  
 A1 = (  15.0000000000,   0.0000000000,   0.0000000000)
 A2 = (   0.0000000000,  15.0000000000,   0.0000000000)
 A3 = (   0.0000000000,   0.0000000000,   0.5000000000)
 
   8 primitive cells build up your supercell.
 

 Routine SETGRP: Setting up the symmetry group for a 
 simple tetragonal supercell.


 Subroutine GETGRP returns: Found 16 space group operations
 (whereof 16 operations were pure point group operations)
 out of a pool of 16 trial point group operations.


The magnetic configuration has the point symmetry D_4h.


 Subroutine INISYM returns: Found 16 space group operations
 (whereof 16 operations are pure point group operations),
 and found     8 'primitive' translations

 
 
 KPOINTS: Automatic kpoint scheme                 

Automatic generation of k-mesh.
Space group operators:
 irot       det(A)        alpha          n_x          n_y          n_z        tau_x        tau_y        tau_z
    1     1.000000     0.000000     1.000000     0.000000     0.000000     0.000000     0.000000     0.000000
    2    -1.000000     0.000000     1.000000     0.000000     0.000000     0.000000     0.000000     0.000000
    3     1.000000    90.000000     0.000000     0.000000    -1.000000     0.000000     0.000000     0.000000
    4    -1.000000    90.000000     0.000000     0.000000    -1.000000     0.000000     0.000000     0.000000
    5     1.000000   180.000000    -0.000000    -0.000000     1.000000     0.000000     0.000000     0.000000
    6    -1.000000   180.000000    -0.000000    -0.000000     1.000000     0.000000     0.000000     0.000000
    7     1.000000    90.000000    -0.000000    -0.000000     1.000000     0.000000     0.000000     0.000000
    8    -1.000000    90.000000    -0.000000    -0.000000     1.000000     0.000000     0.000000     0.000000
    9     1.000000   180.000000     0.000000     1.000000     0.000000     0.000000     0.000000     0.000000
   10    -1.000000   180.000000     0.000000     1.000000     0.000000     0.000000     0.000000     0.000000
   11     1.000000   180.000000     0.707107     0.707107     0.000000     0.000000     0.000000     0.000000
   12    -1.000000   180.000000     0.707107     0.707107     0.000000     0.000000     0.000000     0.000000
   13     1.000000   180.000000     1.000000    -0.000000     0.000000     0.000000     0.000000     0.000000
   14    -1.000000   180.000000     1.000000    -0.000000     0.000000     0.000000     0.000000     0.000000
   15     1.000000   180.000000     0.707107    -0.707107     0.000000     0.000000     0.000000     0.000000
   16    -1.000000   180.000000     0.707107    -0.707107     0.000000     0.000000     0.000000     0.000000
 
 Subroutine IBZKPT returns following result:
 ===========================================
 
 Found      1 irreducible k-points:
 
 Following reciprocal coordinates:
            Coordinates               Weight
  0.000000  0.000000  0.000000      1.000000
 
 Following cartesian coordinates:
            Coordinates               Weight
  0.000000  0.000000  0.000000      1.000000
 


--------------------------------------------------------------------------------------------------------




 Dimension of arrays:
   k-points           NKPTS =      1   k-points in BZ     NKDIM =      1   number of bands    NBANDS=     12
   number of dos      NEDOS =    301   number of ions     NIONS =      8
   non local maximal  LDIM  =      3   non local SUM 2l+1 LMDIM =      5
   total plane-waves  NPLWV =  73728
   max r-space proj   IRMAX =      1   max aug-charges    IRDMAX=    598
   dimension x,y,z NGX =    64 NGY =   64 NGZ =   18
   dimension x,y,z NGXF=   128 NGYF=  128 NGZF=   36
   support grid    NGXF=   128 NGYF=  128 NGZF=   36
   ions per type =               8
   NGX,Y,Z   is equivalent  to a cutoff of   7.09,  7.09,  7.48 a.u.
   NGXF,Y,Z  is equivalent  to a cutoff of  14.19, 14.19, 14.96 a.u.

 SYSTEM =  unknown system                          
 POSCAR =  H8                                      

 Startparameter for this run:
   NWRITE =      2    write-flag & timer
   PREC   = normal    normal or accurate (medium, high low for compatibility)
   ISTART =      0    job   : 0-new  1-cont  2-samecut
   ICHARG =      2    charge: 1-file 2-atom 10-const
   ISPIN  =      2    spin polarized calculation?
   LNONCOLLINEAR =      F non collinear calculations
   LSORBIT =      F    spin-orbit coupling
   INIWAV =      1    electr: 0-lowe 1-rand  2-diag
   LASPH  =      F    aspherical Exc in radial PAW
   METAGGA=      F    non-selfconsistent MetaGGA calc.

 Electronic Relaxation 1
   ENCUT  =  300.0 eV  22.05 Ry    4.70 a.u.  21.18 21.18  5.65*2*pi/ulx,y,z
   ENINI  =  300.0     initial cutoff
   ENAUG  =  400.0 eV  augmentation charge cutoff
   NELM   =    100;   NELMIN=  2; NELMDL= -5     # of ELM steps 
   EDIFF  = 0.1E-05   stopping-criterion for ELM
   LREAL  =      F    real-space projection
   NLSPLINE    = F    spline interpolate recip. space projectors
   LCOMPAT=      F    compatible to vasp.4.4
   GGA_COMPAT  = T    GGA compatible to vasp.4.4-vasp.4.6
   LMAXPAW     = -100 max onsite density
   LMAXMIX     =    2 max onsite mixed and CHGCAR
   VOSKOWN=      0    Vosko Wilk Nusair interpolation
   ROPT   =    0.00000
 Ionic relaxation
   EDIFFG = 0.1E-04   stopping-criterion for IOM
   NSW    =      0    number of steps for IOM
   NBLOCK =      1;   KBLOCK =      1    inner block; outer block 
   IBRION =     -1    ionic relax: 0-MD 1-quasi-New 2-CG
   NFREE  =      0    steps in history (QN), initial steepest desc. (CG)
   ISIF   =      2    stress and relaxation
   IWAVPR =     10    prediction:  0-non 1-charg 2-wave 3-comb
   ISYM   =      2    0-nonsym 1-usesym 2-fastsym
   LCORR  =      T    Harris-Foulkes like correction to forces

   POTIM  = 0.5000    time-step for ionic-motion
   TEIN   =    0.0    initial temperature
   TEBEG  =    0.0;   TEEND  =   0.0 temperature during run
   SMASS  =  -3.00    Nose mass-parameter (am)
   estimated Nose-frequenzy (Omega)   =  0.10E-29 period in steps =****** mass=  -0.514E-26a.u.
   SCALEE = 1.0000    scale energy and forces
   NPACO  =    256;   APACO  = 16.0  distance and # of slots for P.C.
   PSTRESS=    0.0 pullay stress

  Mass of Ions in am
   POMASS =   1.00
  Ionic Valenz
   ZVAL   =   1.00
  Atomic Wigner-Seitz radii
   RWIGS  =  -1.00
  virtual crystal weights 
   VCA    =   1.00
   NELECT =       8.0000    total number of electrons
   NUPDOWN=       0.0000    fix difference up-down

 DOS related values:
   EMIN   =  10.00;   EMAX   =-10.00  energy-range for DOS
   EFERMI =   0.00
   ISMEAR =     0;   SIGMA  =   0.20  broadening in eV -4-tet -1-fermi 0-gaus

 Electronic relaxation 2 (details)
   IALGO  =     38    algorithm
   LDIAG  =      T    sub-space diagonalisation (order eigenvalues)
   LSUBROT=      F    optimize rotation matrix (better conditioning)
   TURBO    =      0    0=normal 1=particle mesh
   IRESTART =      0    0=no restart 2=restart with 2 vectors
   NREBOOT  =      0    no. of reboots
   NMIN     =      0    reboot dimension
   EREF     =   0.00    reference energy to select bands
   IMIX   =      4    mixing-type and parameters
     AMIX     =   0.40;   BMIX     =  1.00
     AMIX_MAG =   1.60;   BMIX_MAG =  1.00
     AMIN     =   0.10
     WC   =   100.;   INIMIX=   1;  MIXPRE=   1;  MAXMIX= -45

 Intra band minimization:
   WEIMIN = 0.0000     energy-eigenvalue tresh-hold
   EBREAK =  0.21E-07  absolut break condition
   DEPER  =   0.30     relativ break condition  

   TIME   =   0.40     timestep for ELM

  volume/ion in A,a.u.               =     112.50       759.19
  Fermi-wavevector in a.u.,A,eV,Ry     =   0.339123  0.640850  1.564731  0.115004
  Thomas-Fermi vector in A             =   1.241745
 
 Write flags
   LWAVE        =      F    write WAVECAR
   LDOWNSAMPLE  =      F    k-point downsampling of WAVECAR
   LCHARG       =      F    write CHGCAR
   LVTOT        =      F    write LOCPOT, total local potential
   LVHAR        =      F    write LOCPOT, Hartree potential only
   LELF         =      F    write electronic localiz. function (ELF)
   LORBIT       =      0    0 simple, 1 ext, 2 COOP (PROOUT), +10 PAW based schemes


 Dipole corrections
   LMONO  =      F    monopole corrections only (constant potential shift)
   LDIPOL =      F    correct potential (dipole corrections)
   IDIPOL =      0    1-x, 2-y, 3-z, 4-all directions 
   EPSILON=  1.0000000 bulk dielectric constant

 Exchange correlation treatment:
   GGA     =    --    GGA type
   LEXCH   =     8    internal setting for exchange type
   VOSKOWN=      0    Vosko Wilk Nusair interpolation
   LHFCALC =     F    Hartree Fock is set to
   LHFONE  =     F    Hartree Fock one center treatment
   AEXX    =    0.0000 exact exchange contribution

 Linear response parameters
   LEPSILON=     F    determine dielectric tensor
   LRPA    =     F    only Hartree local field effects (RPA)
   LNABLA  =     F    use nabla operator in PAW spheres
   LVEL    =     F    velocity operator in full k-point grid
   LINTERFAST=   F  fast interpolation
   KINTER  =     0    interpolate to denser k-point grid
   CSHIFT  =0.1000    complex shift for real part using Kramers Kronig
   OMEGAMAX=  -1.0    maximum frequency
   DEG_THRESHOLD= 0.2000000E-02 threshold for treating states as degnerate
   RTIME   =   -0.100 relaxation time in fs
  (WPLASMAI=    0.000 imaginary part of plasma frequency in eV, 0.658/RTIME)
   DFIELD  = 0.0000000 0.0000000 0.0000000 field for delta impulse in time
 
 Orbital magnetization related:
   ORBITALMAG=     F  switch on orbital magnetization
   LCHIMAG   =     F  perturbation theory with respect to B field
   DQ        =  0.001000  dq finite difference perturbation B field
   LLRAUG    =     F  two centre corrections for induced B field



--------------------------------------------------------------------------------------------------------


 Static calculation
 charge density and potential will be updated during run
 spin polarized calculation
 Variant of blocked Davidson
 Davidson routine will perform the subspace rotation
 perform sub-space diagonalisation
    after iterative eigenvector-optimisation
 modified Broyden-mixing scheme, WC =      100.0
 initial mixing is a Kerker type mixing with AMIX =  0.4000 and BMIX =      1.0000
 Hartree-type preconditioning will be used
 using additional bands            8
 reciprocal scheme for non local part
 calculate Harris-corrections to forces 
   (improved forces if not selfconsistent)
 use gradient corrections 
 use of overlap-Matrix (Vanderbilt PP)
 Gauss-broadening in eV      SIGMA  =   0.20


--------------------------------------------------------------------------------------------------------


  energy-cutoff  :      300.00
  volume of cell :      900.00
      direct lattice vectors                 reciprocal lattice vectors
    15.000000000  0.000000000  0.000000000     0.066666667 -0.000000000  0.000000000
     0.000000000 15.000000000  0.000000000     0.000000000  0.066666667  0.000000000
     0.000000000  0.000000000  4.000000000    -0.000000000 -0.000000000  0.250000000

  length of vectors
    15.000000000 15.000000000  4.000000000     0.066666667  0.066666667  0.250000000


 
 k-points in units of 2pi/SCALE and weight: Automatic kpoint scheme                 
   0.00000000  0.00000000  0.00000000       1.000
 
 k-points in reciprocal lattice and weights: Automatic kpoint scheme                 
   0.00000000  0.00000000  0.00000000       1.000
 
 position of ions in fractional coordinates (direct lattice) 
   0.00000000  0.00000000  0.00000000
   0.00000000  0.00000000  0.12500000
   0.00000000  0.00000000  0.25000000
   0.00000000  0.00000000  0.37500000
   0.00000000  0.00000000  0.50000000
   0.00000000  0.00000000  0.62500000
   0.00000000  0.00000000  0.75000000
   0.00000000  0.00000000  0.87500000
 
 position of ions in cartesian coordinates  (Angst):
   0.00000000  0.00000000  0.00000000
   0.00000000  0.00000000  0.50000000
   0.00000000  0.00000000  1.00000000
   0.00000000  0.00000000  1.50000000
   0.00000000  0.00000000  2.00000000
   0.00000000  0.00000000  2.50000000
   0.00000000  0.00000000  3.00000000
   0.00000000  0.00000000  3.50000000
 


--------------------------------------------------------------------------------------------------------


 k-point  1 :   0.0000 0.0000 0.0000  plane waves:   10591

 maximum and minimum number of plane-waves per node :     10591    10591

 maximum number of plane-waves:     10591
 maximum index in each direction: 
   IXMAX=   21   IYMAX=   21   IZMAX=    5
   IXMIN=  -21   IYMIN=  -21   IZMIN=   -5


 serial   3D FFT for wavefunctions
 parallel 3D FFT for charge:
    minimum data exchange during FFTs selected (reduces bandwidth)


 total amount of memory used by VASP MPI-rank0    55471. kBytes
=======================================================================

   base      :      30000. kBytes
   nonl-proj :       1779. kBytes
   fftplans  :       5549. kBytes
   grid      :      17104. kBytes
   one-center:         19. kBytes
   wavefun   :       1020. kBytes
 
     INWAV:  cpu time    0.0000: real time    0.0000
 Broyden mixing: mesh for mixing (old mesh)
   NGX = 43   NGY = 43   NGZ = 11
  (NGX  =128   NGY  =128   NGZ  = 36)
  gives a total of  20339 points

 initial charge density was supplied:
 charge density of overlapping atoms calculated
 number of electron       8.0000000 magnetization       0.0000000
 keeping initial charge density in first step


--------------------------------------------------------------------------------------------------------


 Maximum index for augmentation-charges           91 (set IRDMAX)


--------------------------------------------------------------------------------------------------------


 First call to EWALD:  gamma=   0.184
 Maximum number of real-space cells 2x 2x 6
 Maximum number of reciprocal cells 4x 4x 1

    FEWALD:  cpu time    0.0016: real time    0.0016


--------------------------------------- Iteration      1(   1)  ---------------------------------------


    POTLOK:  cpu time    0.2037: real time    0.2036
    SETDIJ:  cpu time    0.0093: real time    0.0093
     EDDAV:  cpu time    0.1530: real time    0.1530
       DOS:  cpu time    0.0003: real time    0.0003
    --------------------------------------------
      LOOP:  cpu time    0.3663: real time    0.3662

 eigenvalue-minimisations  :    80
 total energy-change (2. order) : 0.3481583E+02  (-0.1971469E+03)
 number of electron       8.0000000 magnetization       0.0000000
 augmentation part        8.0000000 magnetization       0.0000000

 Free energy of the ion-electron system (eV)
  ---------------------------------------------------
  alpha Z        PSCENC =         0.17323858
  Ewald energy   TEWEN  =       454.97174080
  -Hartree energ DENC   =      -373.09842987
  -exchange      EXHF   =         0.00000000
  -V(xc)+E(xc)   XCENC  =        23.37825233
  PAW double counting   =        17.07221949      -17.14324176
  entropy T*S    EENTRO =        -0.06653198
  eigenvalues    EBANDS =      -170.03761790
  atomic energy  EATOM  =        99.56620307
  Solvation  Ediel_sol  =         0.00000000
  ---------------------------------------------------
  free energy    TOTEN  =        34.81583277 eV

  energy without entropy =       34.88236475  energy(sigma->0) =       34.84909876


--------------------------------------------------------------------------------------------------------




--------------------------------------- Iteration      1(   2)  ---------------------------------------


     EDDAV:  cpu time    0.1157: real time    0.1157
       DOS:  cpu time    0.0003: real time    0.0003
    --------------------------------------------
      LOOP:  cpu time    0.1160: real time    0.1159

 eigenvalue-minimisations  :    60
 total energy-change (2. order) :-0.2260735E+02  (-0.2248763E+02)
 number of electron       8.0000000 magnetization       0.0000000
 augmentation part        8.0000000 magnetization       0.0000000

 Free energy of the ion-electron system (eV)
  ---------------------------------------------------
  alpha Z        PSCENC =         0.17323858
  Ewald energy   TEWEN  =       454.97174080
  -Hartree energ DENC   =      -373.09842987
  -exchange      EXHF   =         0.00000000
  -V(xc)+E(xc)   XCENC  =        23.37825233
  PAW double counting   =        17.07221949      -17.14324176
  entropy T*S    EENTRO =        -0.21810619
  eigenvalues    EBANDS =      -192.49339103
  atomic energy  EATOM  =        99.56620307
  Solvation  Ediel_sol  =         0.00000000
  ---------------------------------------------------
  free energy    TOTEN  =        12.20848543 eV

  energy without entropy =       12.42659162  energy(sigma->0) =       12.31753852


--------------------------------------------------------------------------------------------------------




--------------------------------------- Iteration      1(   3)  ---------------------------------------


     EDDAV:  cpu time    0.1097: real time    0.1097
       DOS:  cpu time    0.0003: real time    0.0003
    --------------------------------------------
      LOOP:  cpu time    0.1100: real time    0.1099

 eigenvalue-minimisations  :    56
 total energy-change (2. order) :-0.4675627E+00  (-0.4604159E+00)
 number of electron       8.0000000 magnetization       0.0000000
 augmentation part        8.0000000 magnetization       0.0000000

 Free energy of the ion-electron system (eV)
  ---------------------------------------------------
  alpha Z        PSCENC =         0.17323858
  Ewald energy   TEWEN  =       454.97174080
  -Hartree energ DENC   =      -373.09842987
  -exchange      EXHF   =         0.00000000
  -V(xc)+E(xc)   XCENC  =        23.37825233
  PAW double counting   =        17.07221949      -17.14324176
  entropy T*S    EENTRO =        -0.22565863
  eigenvalues    EBANDS =      -192.95340132
  atomic energy  EATOM  =        99.56620307
  Solvation  Ediel_sol  =         0.00000000
  ---------------------------------------------------
  free energy    TOTEN  =        11.74092269 eV

  energy without entropy =       11.96658132  energy(sigma->0) =       11.85375201


--------------------------------------------------------------------------------------------------------




--------------------------------------- Iteration      1(   4)  ---------------------------------------


     EDDAV:  cpu time    0.1460: real time    0.1459
       DOS:  cpu time    0.0003: real time    0.0003
    --------------------------------------------
      LOOP:  cpu time    0.1462: real time    0.1462

 eigenvalue-minimisations  :    80
 total energy-change (2. order) :-0.8485714E-02  (-0.8468994E-02)
 number of electron       8.0000000 magnetization       0.0000000
 augmentation part        8.0000000 magnetization       0.0000000

 Free energy of the ion-electron system (eV)
  ---------------------------------------------------
  alpha Z        PSCENC =         0.17323858
  Ewald energy   TEWEN  =       454.97174080
  -Hartree energ DENC   =      -373.09842987
  -exchange      EXHF   =         0.00000000
  -V(xc)+E(xc)   XCENC  =        23.37825233
  PAW double counting   =        17.07221949      -17.14324176
  entropy T*S    EENTRO =        -0.22567582
  eigenvalues    EBANDS =      -192.96186985
  atomic energy  EATOM  =        99.56620307
  Solvation  Ediel_sol  =         0.00000000
  ---------------------------------------------------
  free energy    TOTEN  =        11.73243698 eV

  energy without entropy =       11.95811280  energy(sigma->0) =       11.84527489


--------------------------------------------------------------------------------------------------------




--------------------------------------- Iteration      1(   5)  ---------------------------------------


     EDDAV:  cpu time    0.1100: real time    0.1100
       DOS:  cpu time    0.0003: real time    0.0003
    CHARGE:  cpu time    0.0565: real time    0.0565
    MIXING:  cpu time    0.0040: real time    0.0040
    --------------------------------------------
      LOOP:  cpu time    0.1708: real time    0.1708

 eigenvalue-minimisations  :    56
 total energy-change (2. order) :-0.7270179E-04  (-0.7229113E-04)
 number of electron       8.0000177 magnetization       0.0000000
 augmentation part        0.3153566 magnetization       0.0000002

 Broyden mixing:
  rms(total) = 0.11049E+01    rms(broyden)= 0.10987E+01
  rms(prec ) = 0.12002E+01
  weight for this iteration     100.00

 Free energy of the ion-electron system (eV)
  ---------------------------------------------------
  alpha Z        PSCENC =         0.17323858
  Ewald energy   TEWEN  =       454.97174080
  -Hartree energ DENC   =      -373.09842987
  -exchange      EXHF   =         0.00000000
  -V(xc)+E(xc)   XCENC  =        23.37825233
  PAW double counting   =        17.07221949      -17.14324176
  entropy T*S    EENTRO =        -0.22567583
  eigenvalues    EBANDS =      -192.96194254
  atomic energy  EATOM  =        99.56620307
  Solvation  Ediel_sol  =         0.00000000
  ---------------------------------------------------
  free energy    TOTEN  =        11.73236428 eV

  energy without entropy =       11.95804011  energy(sigma->0) =       11.84520219


--------------------------------------------------------------------------------------------------------




--------------------------------------- Iteration      1(   6)  ---------------------------------------


    POTLOK:  cpu time    0.2032: real time    0.2032
    SETDIJ:  cpu time    0.0100: real time    0.0100
     EDDAV:  cpu time    0.1230: real time    0.1229
       DOS:  cpu time    0.0003: real time    0.0003
    CHARGE:  cpu time    0.0554: real time    0.0554
    MIXING:  cpu time    0.0043: real time    0.0043
    --------------------------------------------
      LOOP:  cpu time    0.3962: real time    0.3961

 eigenvalue-minimisations  :    64
 total energy-change (2. order) : 0.1904370E+01  (-0.1036069E+00)
 number of electron       8.0000173 magnetization      -0.0000000
 augmentation part        0.3090073 magnetization      -0.0000409

 Broyden mixing:
  rms(total) = 0.64184E+00    rms(broyden)= 0.64158E+00
  rms(prec ) = 0.69932E+00
  weight for this iteration     100.00

 eigenvalues of (default mixing * dielectric matrix)
  average eigenvalue GAMMA=   2.3976
  2.3976

 Free energy of the ion-electron system (eV)
  ---------------------------------------------------
  alpha Z        PSCENC =         0.17323858
  Ewald energy   TEWEN  =       454.97174080
  -Hartree energ DENC   =      -384.45538046
  -exchange      EXHF   =         0.00000000
  -V(xc)+E(xc)   XCENC  =        24.41571904
  PAW double counting   =        89.05469711      -89.30349958
  entropy T*S    EENTRO =        -0.22567583
  eigenvalues    EBANDS =      -180.56030805
  atomic energy  EATOM  =        99.56620307
  Solvation  Ediel_sol  =         0.00000000
  ---------------------------------------------------
  free energy    TOTEN  =        13.63673467 eV

  energy without entropy =       13.86241051  energy(sigma->0) =       13.74957259


--------------------------------------------------------------------------------------------------------




--------------------------------------- Iteration      1(   7)  ---------------------------------------


    POTLOK:  cpu time    0.2031: real time    0.2030
    SETDIJ:  cpu time    0.0101: real time    0.0101
     EDDAV:  cpu time    0.1016: real time    0.1015
       DOS:  cpu time    0.0003: real time    0.0003
    CHARGE:  cpu time    0.0560: real time    0.0559
    MIXING:  cpu time    0.0047: real time    0.0047
    --------------------------------------------
      LOOP:  cpu time    0.3757: real time    0.3756

 eigenvalue-minimisations  :    48
 total energy-change (2. order) : 0.6618099E+00  (-0.2121092E+00)
 number of electron       8.0000168 magnetization      -0.0000000
 augmentation part        0.2994451 magnetization      -0.0000144

 Broyden mixing:
  rms(total) = 0.41628E-01    rms(broyden)= 0.41388E-01
  rms(prec ) = 0.63735E-01
  weight for this iteration     100.00

 eigenvalues of (default mixing * dielectric matrix)
  average eigenvalue GAMMA=   2.6335
  2.6335  2.6335

 Free energy of the ion-electron system (eV)
  ---------------------------------------------------
  alpha Z        PSCENC =         0.17323858
  Ewald energy   TEWEN  =       454.97174080
  -Hartree energ DENC   =      -401.06432986
  -exchange      EXHF   =         0.00000000
  -V(xc)+E(xc)   XCENC  =        26.03445273
  PAW double counting   =       285.33512536     -286.01234707
  entropy T*S    EENTRO =        -0.22567583
  eigenvalues    EBANDS =      -164.47986322
  atomic energy  EATOM  =        99.56620307
  Solvation  Ediel_sol  =         0.00000000
  ---------------------------------------------------
  free energy    TOTEN  =        14.29854457 eV

  energy without entropy =       14.52422040  energy(sigma->0) =       14.41138249


--------------------------------------------------------------------------------------------------------




--------------------------------------- Iteration      1(   8)  ---------------------------------------


    POTLOK:  cpu time    0.2009: real time    0.2009
    SETDIJ:  cpu time    0.0099: real time    0.0099
     EDDAV:  cpu time    0.1239: real time    0.1239
       DOS:  cpu time    0.0003: real time    0.0003
    CHARGE:  cpu time    0.0560: real time    0.0560
    MIXING:  cpu time    0.0048: real time    0.0048
    --------------------------------------------
      LOOP:  cpu time    0.3959: real time    0.3957

 eigenvalue-minimisations  :    64
 total energy-change (2. order) : 0.1991884E-01  (-0.5507596E-02)
 number of electron       8.0000169 magnetization       0.0000000
 augmentation part        0.3003189 magnetization       0.0000549

 Broyden mixing:
  rms(total) = 0.17769E-01    rms(broyden)= 0.17760E-01
  rms(prec ) = 0.23246E-01
  weight for this iteration     100.00

 eigenvalues of (default mixing * dielectric matrix)
  average eigenvalue GAMMA=   1.9804
  2.8211  2.3885  0.7317

 Free energy of the ion-electron system (eV)
  ---------------------------------------------------
  alpha Z        PSCENC =         0.17323858
  Ewald energy   TEWEN  =       454.97174080
  -Hartree energ DENC   =      -395.98224535
  -exchange      EXHF   =         0.00000000
  -V(xc)+E(xc)   XCENC  =        25.83447263
  PAW double counting   =       286.93957841     -287.59231727
  entropy T*S    EENTRO =        -0.22567583
  eigenvalues    EBANDS =      -169.36653162
  atomic energy  EATOM  =        99.56620307
  Solvation  Ediel_sol  =         0.00000000
  ---------------------------------------------------
  free energy    TOTEN  =        14.31846341 eV

  energy without entropy =       14.54413924  energy(sigma->0) =       14.43130133


--------------------------------------------------------------------------------------------------------




--------------------------------------- Iteration      1(   9)  ---------------------------------------


    POTLOK:  cpu time    0.2006: real time    0.2006
    SETDIJ:  cpu time    0.0100: real time    0.0100
     EDDAV:  cpu time    0.1102: real time    0.1101
       DOS:  cpu time    0.0002: real time    0.0002
    CHARGE:  cpu time    0.0555: real time    0.0555
    MIXING:  cpu time    0.0051: real time    0.0051
    --------------------------------------------
      LOOP:  cpu time    0.3816: real time    0.3815

 eigenvalue-minimisations  :    56
 total energy-change (2. order) :-0.1875715E-02  (-0.1898738E-03)
 number of electron       8.0000169 magnetization      -0.0000000
 augmentation part        0.3000373 magnetization      -0.0000301

 Broyden mixing:
  rms(total) = 0.66818E-02    rms(broyden)= 0.66731E-02
  rms(prec ) = 0.14003E-01
  weight for this iteration     100.00

 eigenvalues of (default mixing * dielectric matrix)
  average eigenvalue GAMMA=   1.8641
  2.6606  2.0778  2.0778  0.6403

 Free energy of the ion-electron system (eV)
  ---------------------------------------------------
  alpha Z        PSCENC =         0.17323858
  Ewald energy   TEWEN  =       454.97174080
  -Hartree energ DENC   =      -396.43329621
  -exchange      EXHF   =         0.00000000
  -V(xc)+E(xc)   XCENC  =        25.88554753
  PAW double counting   =       292.43459337     -293.10248595
  entropy T*S    EENTRO =        -0.22567583
  eigenvalues    EBANDS =      -168.95327766
  atomic energy  EATOM  =        99.56620307
  Solvation  Ediel_sol  =         0.00000000
  ---------------------------------------------------
  free energy    TOTEN  =        14.31658770 eV

  energy without entropy =       14.54226353  energy(sigma->0) =       14.42942561


--------------------------------------------------------------------------------------------------------




--------------------------------------- Iteration      1(  10)  ---------------------------------------


    POTLOK:  cpu time    0.2010: real time    0.2009
    SETDIJ:  cpu time    0.0099: real time    0.0099
     EDDAV:  cpu time    0.1096: real time    0.1096
       DOS:  cpu time    0.0003: real time    0.0003
    CHARGE:  cpu time    0.0561: real time    0.0561
    MIXING:  cpu time    0.0055: real time    0.0055
    --------------------------------------------
      LOOP:  cpu time    0.3823: real time    0.3821

 eigenvalue-minimisations  :    56
 total energy-change (2. order) :-0.1189824E-02  (-0.4990858E-04)
 number of electron       8.0000169 magnetization       0.0000000
 augmentation part        0.2999917 magnetization       0.0000122

 Broyden mixing:
  rms(total) = 0.48686E-02    rms(broyden)= 0.48676E-02
  rms(prec ) = 0.11066E-01
  weight for this iteration     100.00

 eigenvalues of (default mixing * dielectric matrix)
  average eigenvalue GAMMA=   1.8900
  2.7056  2.7056  2.5412  0.7488  0.7488

 Free energy of the ion-electron system (eV)
  ---------------------------------------------------
  alpha Z        PSCENC =         0.17323858
  Ewald energy   TEWEN  =       454.97174080
  -Hartree energ DENC   =      -396.13929412
  -exchange      EXHF   =         0.00000000
  -V(xc)+E(xc)   XCENC  =        25.87977289
  PAW double counting   =       292.34917815     -293.01879563
  entropy T*S    EENTRO =        -0.22567583
  eigenvalues    EBANDS =      -169.24097004
  atomic energy  EATOM  =        99.56620307
  Solvation  Ediel_sol  =         0.00000000
  ---------------------------------------------------
  free energy    TOTEN  =        14.31539787 eV

  energy without entropy =       14.54107370  energy(sigma->0) =       14.42823579


--------------------------------------------------------------------------------------------------------




--------------------------------------- Iteration      1(  11)  ---------------------------------------


    POTLOK:  cpu time    0.2014: real time    0.2013
    SETDIJ:  cpu time    0.0099: real time    0.0099
     EDDAV:  cpu time    0.0979: real time    0.0979
       DOS:  cpu time    0.0003: real time    0.0003
    CHARGE:  cpu time    0.0546: real time    0.0546
    MIXING:  cpu time    0.0057: real time    0.0057
    --------------------------------------------
      LOOP:  cpu time    0.3698: real time    0.3696

 eigenvalue-minimisations  :    48
 total energy-change (2. order) :-0.9774776E-03  (-0.2370183E-03)
 number of electron       8.0000169 magnetization       0.0000000
 augmentation part        0.3000394 magnetization       0.0000036

 Broyden mixing:
  rms(total) = 0.25093E-02    rms(broyden)= 0.25092E-02
  rms(prec ) = 0.54175E-02
  weight for this iteration     100.00

 eigenvalues of (default mixing * dielectric matrix)
  average eigenvalue GAMMA=   1.8707
  3.6340  2.7589  2.2579  1.1105  0.7930  0.6702

 Free energy of the ion-electron system (eV)
  ---------------------------------------------------
  alpha Z        PSCENC =         0.17323858
  Ewald energy   TEWEN  =       454.97174080
  -Hartree energ DENC   =      -395.14944113
  -exchange      EXHF   =         0.00000000
  -V(xc)+E(xc)   XCENC  =        25.84488614
  PAW double counting   =       290.99827109     -291.66600755
  entropy T*S    EENTRO =        -0.22567583
  eigenvalues    EBANDS =      -170.19879477
  atomic energy  EATOM  =        99.56620307
  Solvation  Ediel_sol  =         0.00000000
  ---------------------------------------------------
  free energy    TOTEN  =        14.31442039 eV

  energy without entropy =       14.54009623  energy(sigma->0) =       14.42725831


--------------------------------------------------------------------------------------------------------




--------------------------------------- Iteration      1(  12)  ---------------------------------------


    POTLOK:  cpu time    0.1969: real time    0.1968
    SETDIJ:  cpu time    0.0098: real time    0.0098
     EDDAV:  cpu time    0.1023: real time    0.1022
       DOS:  cpu time    0.0003: real time    0.0003
    CHARGE:  cpu time    0.0549: real time    0.0549
    MIXING:  cpu time    0.0061: real time    0.0061
    --------------------------------------------
      LOOP:  cpu time    0.3703: real time    0.4110

 eigenvalue-minimisations  :    52
 total energy-change (2. order) :-0.5319751E-03  (-0.3937930E-04)
 number of electron       8.0000169 magnetization      -0.0000000
 augmentation part        0.3000453 magnetization      -0.0000096

 Broyden mixing:
  rms(total) = 0.20031E-02    rms(broyden)= 0.20030E-02
  rms(prec ) = 0.39054E-02
  weight for this iteration     100.00

 eigenvalues of (default mixing * dielectric matrix)
  average eigenvalue GAMMA=   2.0592
  4.7048  2.7773  2.3330  2.3330  0.8293  0.8090  0.6279

 Free energy of the ion-electron system (eV)
  ---------------------------------------------------
  alpha Z        PSCENC =         0.17323858
  Ewald energy   TEWEN  =       454.97174080
  -Hartree energ DENC   =      -394.91809562
  -exchange      EXHF   =         0.00000000
  -V(xc)+E(xc)   XCENC  =        25.83726811
  PAW double counting   =       291.07757096     -291.74473413
  entropy T*S    EENTRO =        -0.22567583
  eigenvalues    EBANDS =      -170.42362753
  atomic energy  EATOM  =        99.56620307
  Solvation  Ediel_sol  =         0.00000000
  ---------------------------------------------------
  free energy    TOTEN  =        14.31388842 eV

  energy without entropy =       14.53956425  energy(sigma->0) =       14.42672634


--------------------------------------------------------------------------------------------------------




--------------------------------------- Iteration      1(  13)  ---------------------------------------


    POTLOK:  cpu time    0.2005: real time    0.2412
    SETDIJ:  cpu time    0.0100: real time    0.0099
     EDDAV:  cpu time    0.0971: real time    0.0971
       DOS:  cpu time    0.0003: real time    0.0003
    CHARGE:  cpu time    0.0557: real time    0.0557
    MIXING:  cpu time    0.0064: real time    0.0064
    --------------------------------------------
      LOOP:  cpu time    0.3700: real time    0.3698

 eigenvalue-minimisations  :    48
 total energy-change (2. order) :-0.5140722E-03  (-0.3869174E-04)
 number of electron       8.0000169 magnetization       0.0000000
 augmentation part        0.3000214 magnetization       0.0000034

 Broyden mixing:
  rms(total) = 0.88323E-03    rms(broyden)= 0.88300E-03
  rms(prec ) = 0.19319E-02
  weight for this iteration     100.00

 eigenvalues of (default mixing * dielectric matrix)
  average eigenvalue GAMMA=   2.1356
  5.2156  3.7128  2.5793  2.2935  0.9743  0.9743  0.7085  0.6262

 Free energy of the ion-electron system (eV)
  ---------------------------------------------------
  alpha Z        PSCENC =         0.17323858
  Ewald energy   TEWEN  =       454.97174080
  -Hartree energ DENC   =      -394.84553082
  -exchange      EXHF   =         0.00000000
  -V(xc)+E(xc)   XCENC  =        25.83672421
  PAW double counting   =       291.48885539     -292.15615829
  entropy T*S    EENTRO =        -0.22567583
  eigenvalues    EBANDS =      -170.49602276
  atomic energy  EATOM  =        99.56620307
  Solvation  Ediel_sol  =         0.00000000
  ---------------------------------------------------
  free energy    TOTEN  =        14.31337435 eV

  energy without entropy =       14.53905018  energy(sigma->0) =       14.42621226


--------------------------------------------------------------------------------------------------------




--------------------------------------- Iteration      1(  14)  ---------------------------------------


    POTLOK:  cpu time    0.2070: real time    0.2070
    SETDIJ:  cpu time    0.0101: real time    0.0101
     EDDAV:  cpu time    0.0985: real time    0.0985
       DOS:  cpu time    0.0003: real time    0.0003
    CHARGE:  cpu time    0.0557: real time    0.0557
    MIXING:  cpu time    0.0073: real time    0.0073
    --------------------------------------------
      LOOP:  cpu time    0.3789: real time    0.3788

 eigenvalue-minimisations  :    48
 total energy-change (2. order) :-0.1326707E-03  (-0.4948107E-05)
 number of electron       8.0000169 magnetization      -0.0000000
 augmentation part        0.3000095 magnetization      -0.0000012

 Broyden mixing:
  rms(total) = 0.66293E-03    rms(broyden)= 0.66280E-03
  rms(prec ) = 0.13367E-02
  weight for this iteration     100.00

 eigenvalues of (default mixing * dielectric matrix)
  average eigenvalue GAMMA=   2.1670
  5.4193  4.2249  2.6187  2.2014  1.8187  0.9445  0.9445  0.7059  0.6253

 Free energy of the ion-electron system (eV)
  ---------------------------------------------------
  alpha Z        PSCENC =         0.17323858
  Ewald energy   TEWEN  =       454.97174080
  -Hartree energ DENC   =      -394.85365153
  -exchange      EXHF   =         0.00000000
  -V(xc)+E(xc)   XCENC  =        25.83812723
  PAW double counting   =       291.58569590     -292.25321830
  entropy T*S    EENTRO =        -0.22567583
  eigenvalues    EBANDS =      -170.48921824
  atomic energy  EATOM  =        99.56620307
  Solvation  Ediel_sol  =         0.00000000
  ---------------------------------------------------
  free energy    TOTEN  =        14.31324168 eV

  energy without entropy =       14.53891751  energy(sigma->0) =       14.42607959


--------------------------------------------------------------------------------------------------------




--------------------------------------- Iteration      1(  15)  ---------------------------------------


    POTLOK:  cpu time    0.2002: real time    0.2001
    SETDIJ:  cpu time    0.0098: real time    0.0098
     EDDAV:  cpu time    0.0981: real time    0.0980
       DOS:  cpu time    0.0003: real time    0.0003
    CHARGE:  cpu time    0.0551: real time    0.0551
    MIXING:  cpu time    0.0072: real time    0.0072
    --------------------------------------------
      LOOP:  cpu time    0.3707: real time    0.3706

 eigenvalue-minimisations  :    48
 total energy-change (2. order) :-0.1544664E-03  (-0.8402408E-05)
 number of electron       8.0000169 magnetization      -0.0000000
 augmentation part        0.3000135 magnetization       0.0000004

 Broyden mixing:
  rms(total) = 0.27705E-03    rms(broyden)= 0.27703E-03
  rms(prec ) = 0.46344E-03
  weight for this iteration     100.00

 eigenvalues of (default mixing * dielectric matrix)
  average eigenvalue GAMMA=   2.3803
  7.0762  4.8685  3.0107  2.5012  2.3395  0.9848  0.9848  0.7073  0.7073  0.6223

 Free energy of the ion-electron system (eV)
  ---------------------------------------------------
  alpha Z        PSCENC =         0.17323858
  Ewald energy   TEWEN  =       454.97174080
  -Hartree energ DENC   =      -394.80259288
  -exchange      EXHF   =         0.00000000
  -V(xc)+E(xc)   XCENC  =        25.83737984
  PAW double counting   =       291.48251841     -292.14997498
  entropy T*S    EENTRO =        -0.22567583
  eigenvalues    EBANDS =      -170.53974979
  atomic energy  EATOM  =        99.56620307
  Solvation  Ediel_sol  =         0.00000000
  ---------------------------------------------------
  free energy    TOTEN  =        14.31308721 eV

  energy without entropy =       14.53876304  energy(sigma->0) =       14.42592513


--------------------------------------------------------------------------------------------------------




--------------------------------------- Iteration      1(  16)  ---------------------------------------


    POTLOK:  cpu time    0.2013: real time    0.2012
    SETDIJ:  cpu time    0.0101: real time    0.0101
     EDDAV:  cpu time    0.0990: real time    0.0990
       DOS:  cpu time    0.0003: real time    0.0003
    CHARGE:  cpu time    0.0555: real time    0.0555
    MIXING:  cpu time    0.0078: real time    0.0078
    --------------------------------------------
      LOOP:  cpu time    0.3740: real time    0.3738

 eigenvalue-minimisations  :    48
 total energy-change (2. order) :-0.1132264E-04  (-0.2784839E-05)
 number of electron       8.0000169 magnetization      -0.0000000
 augmentation part        0.3000154 magnetization      -0.0000001

 Broyden mixing:
  rms(total) = 0.16892E-03    rms(broyden)= 0.16891E-03
  rms(prec ) = 0.28175E-03
  weight for this iteration     100.00

 eigenvalues of (default mixing * dielectric matrix)
  average eigenvalue GAMMA=   2.3165
  7.5332  4.9240  3.1263  2.5401  2.3180  1.0714  1.0714  0.8735  0.7277  0.6230
  0.6730

 Free energy of the ion-electron system (eV)
  ---------------------------------------------------
  alpha Z        PSCENC =         0.17323858
  Ewald energy   TEWEN  =       454.97174080
  -Hartree energ DENC   =      -394.78906520
  -exchange      EXHF   =         0.00000000
  -V(xc)+E(xc)   XCENC  =        25.83707798
  PAW double counting   =       291.46559897     -292.13304615
  entropy T*S    EENTRO =        -0.22567583
  eigenvalues    EBANDS =      -170.55299633
  atomic energy  EATOM  =        99.56620307
  Solvation  Ediel_sol  =         0.00000000
  ---------------------------------------------------
  free energy    TOTEN  =        14.31307589 eV

  energy without entropy =       14.53875172  energy(sigma->0) =       14.42591380


--------------------------------------------------------------------------------------------------------




--------------------------------------- Iteration      1(  17)  ---------------------------------------


    POTLOK:  cpu time    0.2023: real time    0.2023
    SETDIJ:  cpu time    0.0100: real time    0.0100
     EDDAV:  cpu time    0.0989: real time    0.0988
       DOS:  cpu time    0.0003: real time    0.0003
    CHARGE:  cpu time    0.0566: real time    0.0566
    MIXING:  cpu time    0.0083: real time    0.0083
    --------------------------------------------
      LOOP:  cpu time    0.3763: real time    0.3762

 eigenvalue-minimisations  :    48
 total energy-change (2. order) :-0.2875718E-04  (-0.1298535E-05)
 number of electron       8.0000169 magnetization      -0.0000000
 augmentation part        0.3000151 magnetization      -0.0000001

 Broyden mixing:
  rms(total) = 0.10000E-03    rms(broyden)= 0.99996E-04
  rms(prec ) = 0.14813E-03
  weight for this iteration     100.00

 eigenvalues of (default mixing * dielectric matrix)
  average eigenvalue GAMMA=   2.4085
  8.2433  5.1632  3.3246  2.7590  2.4235  2.2769  0.9912  0.9912  0.7464  0.7158
  0.6209  0.6457

 Free energy of the ion-electron system (eV)
  ---------------------------------------------------
  alpha Z        PSCENC =         0.17323858
  Ewald energy   TEWEN  =       454.97174080
  -Hartree energ DENC   =      -394.78925223
  -exchange      EXHF   =         0.00000000
  -V(xc)+E(xc)   XCENC  =        25.83710578
  PAW double counting   =       291.47386715     -292.14134845
  entropy T*S    EENTRO =        -0.22567583
  eigenvalues    EBANDS =      -170.55283175
  atomic energy  EATOM  =        99.56620307
  Solvation  Ediel_sol  =         0.00000000
  ---------------------------------------------------
  free energy    TOTEN  =        14.31304713 eV

  energy without entropy =       14.53872296  energy(sigma->0) =       14.42588505


--------------------------------------------------------------------------------------------------------




--------------------------------------- Iteration      1(  18)  ---------------------------------------


    POTLOK:  cpu time    0.2045: real time    0.2045
    SETDIJ:  cpu time    0.0105: real time    0.0105
     EDDAV:  cpu time    0.0989: real time    0.0989
       DOS:  cpu time    0.0003: real time    0.0003
    CHARGE:  cpu time    0.0555: real time    0.0555
    MIXING:  cpu time    0.0086: real time    0.0086
    --------------------------------------------
      LOOP:  cpu time    0.3783: real time    0.3782

 eigenvalue-minimisations  :    48
 total energy-change (2. order) :-0.1081173E-04  (-0.6871145E-06)
 number of electron       8.0000169 magnetization       0.0000000
 augmentation part        0.3000150 magnetization      -0.0000000

 Broyden mixing:
  rms(total) = 0.37177E-04    rms(broyden)= 0.37162E-04
  rms(prec ) = 0.62025E-04
  weight for this iteration     100.00

 eigenvalues of (default mixing * dielectric matrix)
  average eigenvalue GAMMA=   2.4160
  8.8396  5.4894  3.6256  3.1158  2.5180  2.2905  0.9959  0.9959  0.8673  0.7363
  0.7017  0.6243  0.6084

 Free energy of the ion-electron system (eV)
  ---------------------------------------------------
  alpha Z        PSCENC =         0.17323858
  Ewald energy   TEWEN  =       454.97174080
  -Hartree energ DENC   =      -394.78993270
  -exchange      EXHF   =         0.00000000
  -V(xc)+E(xc)   XCENC  =        25.83709105
  PAW double counting   =       291.47789213     -292.14537382
  entropy T*S    EENTRO =        -0.22567583
  eigenvalues    EBANDS =      -170.55214696
  atomic energy  EATOM  =        99.56620307
  Solvation  Ediel_sol  =         0.00000000
  ---------------------------------------------------
  free energy    TOTEN  =        14.31303632 eV

  energy without entropy =       14.53871215  energy(sigma->0) =       14.42587423


--------------------------------------------------------------------------------------------------------




--------------------------------------- Iteration      1(  19)  ---------------------------------------


    POTLOK:  cpu time    0.2049: real time    0.2048
    SETDIJ:  cpu time    0.0100: real time    0.0100
     EDDAV:  cpu time    0.0987: real time    0.0987
       DOS:  cpu time    0.0003: real time    0.0003
    CHARGE:  cpu time    0.0553: real time    0.0553
    MIXING:  cpu time    0.0090: real time    0.0090
    --------------------------------------------
      LOOP:  cpu time    0.3783: real time    0.3782

 eigenvalue-minimisations  :    48
 total energy-change (2. order) :-0.2754067E-05  (-0.5656832E-07)
 number of electron       8.0000169 magnetization       0.0000000
 augmentation part        0.3000151 magnetization       0.0000001

 Broyden mixing:
  rms(total) = 0.23062E-04    rms(broyden)= 0.23058E-04
  rms(prec ) = 0.44671E-04
  weight for this iteration     100.00

 eigenvalues of (default mixing * dielectric matrix)
  average eigenvalue GAMMA=   2.3594
  8.8906  5.6112  3.6440  3.2026  2.5281  2.2943  1.3230  1.0558  0.9611  0.8772
  0.7147  0.7028  0.6232  0.6028

 Free energy of the ion-electron system (eV)
  ---------------------------------------------------
  alpha Z        PSCENC =         0.17323858
  Ewald energy   TEWEN  =       454.97174080
  -Hartree energ DENC   =      -394.78950654
  -exchange      EXHF   =         0.00000000
  -V(xc)+E(xc)   XCENC  =        25.83705709
  PAW double counting   =       291.47718464     -292.14465404
  entropy T*S    EENTRO =        -0.22567583
  eigenvalues    EBANDS =      -170.55255422
  atomic energy  EATOM  =        99.56620307
  Solvation  Ediel_sol  =         0.00000000
  ---------------------------------------------------
  free energy    TOTEN  =        14.31303356 eV

  energy without entropy =       14.53870940  energy(sigma->0) =       14.42587148


--------------------------------------------------------------------------------------------------------




--------------------------------------- Iteration      1(  20)  ---------------------------------------


    POTLOK:  cpu time    0.2037: real time    0.2037
    SETDIJ:  cpu time    0.0100: real time    0.0100
     EDDAV:  cpu time    0.0995: real time    0.0994
       DOS:  cpu time    0.0003: real time    0.0003
    CHARGE:  cpu time    0.0557: real time    0.0557
    MIXING:  cpu time    0.0096: real time    0.0096
    --------------------------------------------
      LOOP:  cpu time    0.3788: real time    0.3787

 eigenvalue-minimisations  :    48
 total energy-change (2. order) :-0.2218086E-05  (-0.3743192E-07)
 number of electron       8.0000169 magnetization      -0.0000000
 augmentation part        0.3000147 magnetization      -0.0000001

 Broyden mixing:
  rms(total) = 0.12328E-04    rms(broyden)= 0.12312E-04
  rms(prec ) = 0.24174E-04
  weight for this iteration     100.00

 eigenvalues of (default mixing * dielectric matrix)
  average eigenvalue GAMMA=   2.3838
  8.8797  5.8721  3.6603  3.5593  2.7432  2.4923  2.2770  1.0086  0.9804  0.9032
  0.7512  0.7215  0.6852  0.6244  0.5984

 Free energy of the ion-electron system (eV)
  ---------------------------------------------------
  alpha Z        PSCENC =         0.17323858
  Ewald energy   TEWEN  =       454.97174080
  -Hartree energ DENC   =      -394.79011132
  -exchange      EXHF   =         0.00000000
  -V(xc)+E(xc)   XCENC  =        25.83708601
  PAW double counting   =       291.47742466     -292.14488494
  entropy T*S    EENTRO =        -0.22567583
  eigenvalues    EBANDS =      -170.55198969
  atomic energy  EATOM  =        99.56620307
  Solvation  Ediel_sol  =         0.00000000
  ---------------------------------------------------
  free energy    TOTEN  =        14.31303135 eV

  energy without entropy =       14.53870718  energy(sigma->0) =       14.42586926


--------------------------------------------------------------------------------------------------------




--------------------------------------- Iteration      1(  21)  ---------------------------------------


    POTLOK:  cpu time    0.2047: real time    0.2046
    SETDIJ:  cpu time    0.0100: real time    0.0099
     EDDAV:  cpu time    0.1001: real time    0.1001
       DOS:  cpu time    0.0003: real time    0.0003
    --------------------------------------------
      LOOP:  cpu time    0.3150: real time    0.3149

 eigenvalue-minimisations  :    48
 total energy-change (2. order) :-0.4206946E-06  (-0.7583498E-08)
 number of electron       8.0000169 magnetization      -0.0000000
 augmentation part        0.3000147 magnetization      -0.0000001

 Free energy of the ion-electron system (eV)
  ---------------------------------------------------
  alpha Z        PSCENC =         0.17323858
  Ewald energy   TEWEN  =       454.97174080
  -Hartree energ DENC   =      -394.79010091
  -exchange      EXHF   =         0.00000000
  -V(xc)+E(xc)   XCENC  =        25.83710164
  PAW double counting   =       291.47833300     -292.14579460
  entropy T*S    EENTRO =        -0.22567583
  eigenvalues    EBANDS =      -170.55201483
  atomic energy  EATOM  =        99.56620307
  Solvation  Ediel_sol  =         0.00000000
  ---------------------------------------------------
  free energy    TOTEN  =        14.31303092 eV

  energy without entropy =       14.53870676  energy(sigma->0) =       14.42586884


--------------------------------------------------------------------------------------------------------




 average (electrostatic) potential at core
  the test charge radii are     0.5201
  (the norm of the test charge is              1.0001)
       1 -61.6722       2 -61.6771       3 -61.6722       4 -61.6771       5 -61.6722
       6 -61.6771       7 -61.6722       8 -61.6771
 
 
 
 E-fermi :  -3.8319     XC(G=0):  -1.0388     alpha+bet : -0.2454


 spin component 1

 k-point     1 :       0.0000    0.0000    0.0000
  band No.  band energies     occupation 
      1     -33.4014      1.00000
      2     -24.0214      1.00000
      3     -24.0214      1.00000
      4      -3.8319      0.50000
      5      -3.8319      0.50000
      6      -2.4155      0.00000
      7       0.1397      0.00000
      8       0.2318      0.00000
      9       0.3395      0.00000
     10       0.3395      0.00000
     11       0.4903      0.00000
     12       1.1330      0.00000

 spin component 2

 k-point     1 :       0.0000    0.0000    0.0000
  band No.  band energies     occupation 
      1     -33.4014      1.00000
      2     -24.0214      1.00000
      3     -24.0214      1.00000
      4      -3.8319      0.50000
      5      -3.8319      0.50000
      6      -2.4155      0.00000
      7       0.1418      0.00000
      8       0.2333      0.00000
      9       0.3388      0.00000
     10       0.3388      0.00000
     11       0.4893      0.00000
     12       1.1402      0.00000


--------------------------------------------------------------------------------------------------------


 soft charge-density along one line, spin component           1
         0         1         2         3         4         5         6         7         8         9
 total charge-density along one line
 
 soft charge-density along one line, spin component           2
         0         1         2         3         4         5         6         7         8         9
 total charge-density along one line
 
 pseudopotential strength for first ion, spin component:           1
 -2.594  -4.519   0.000  -0.000   0.000
 -4.519  -7.786   0.000  -0.000   0.000
  0.000   0.000  -0.272   0.000   0.000
 -0.000  -0.000   0.000  -0.234   0.000
  0.000   0.000   0.000   0.000  -0.272
 pseudopotential strength for first ion, spin component:           2
 -2.594  -4.519   0.000  -0.000   0.000
 -4.519  -7.786   0.000  -0.000   0.000
  0.000   0.000  -0.272   0.000   0.000
 -0.000  -0.000   0.000  -0.234   0.000
  0.000   0.000   0.000   0.000  -0.272
 total augmentation occupancy for first ion, spin component:           1
  2.923  -0.106   0.000   0.000  -0.000
 -0.106   0.087   0.000   0.000   0.000
  0.000   0.000   0.031   0.000   0.000
  0.000   0.000   0.000   0.291   0.000
  0.000   0.000   0.000   0.000   0.031
 total augmentation occupancy for first ion, spin component:           2
  0.000  -0.000   0.000  -0.000   0.000
 -0.000  -0.000   0.000   0.000   0.000
  0.000   0.000   0.000   0.000   0.000
 -0.000   0.000   0.000  -0.000   0.000
  0.000  -0.000   0.000   0.000   0.000


------------------------ aborting loop because EDIFF is reached ----------------------------------------


    CHARGE:  cpu time    0.0565: real time    0.0565
    FORLOC:  cpu time    0.0088: real time    0.0088
    FORNL :  cpu time    0.0190: real time    0.0190
    STRESS:  cpu time    0.0717: real time    0.0717
    FORHAR:  cpu time    0.0205: real time    0.0205
    MIXING:  cpu time    0.0104: real time    0.0104
    OFIELD:  cpu time    0.0001: real time    0.0001

  FORCE on cell =-STRESS in cart. coord.  units (eV):
  Direction    XX          YY          ZZ          XY          YZ          ZX
  --------------------------------------------------------------------------------------
  Alpha Z     0.17324     0.17324     0.17324
  Ewald    -115.19831  -115.19831   685.36826    -0.00000     0.00000     0.00000
  Hartree     0.00119     0.00119   394.78697    -0.00000    -0.00000    -0.00000
  E(xc)     -28.92431   -28.92431   -25.84196     0.00000     0.00000     0.00000
  Local      46.50479    46.50479  -966.02393     0.00000     0.00000     0.00000
  n-local   -33.83201   -33.83201   -47.39708     0.00000    -0.00000     0.00000
  augment     2.71804     2.71804    -0.02750     0.00000    -0.00000     0.00000
  Kinetic   125.37199   125.37199    71.39253    -0.00000    -0.00000     0.00000
  Fock        0.00000     0.00000     0.00000     0.00000     0.00000     0.00000
  -------------------------------------------------------------------------------------
  Total      -3.18538    -3.18538   112.43053    -0.00000    -0.00000    -0.00000
  in kB      -5.67061    -5.67061   200.14849    -0.00000    -0.00000    -0.00000
  external pressure =       62.94 kB  Pullay stress =        0.00 kB


 VOLUME and BASIS-vectors are now :
 -----------------------------------------------------------------------------
  energy-cutoff  :      300.00
  volume of cell :      900.00
      direct lattice vectors                 reciprocal lattice vectors
    15.000000000  0.000000000  0.000000000     0.066666667 -0.000000000  0.000000000
     0.000000000 15.000000000  0.000000000     0.000000000  0.066666667  0.000000000
     0.000000000  0.000000000  4.000000000    -0.000000000 -0.000000000  0.250000000

  length of vectors
    15.000000000 15.000000000  4.000000000     0.066666667  0.066666667  0.250000000


 FORCES acting on ions
    electron-ion (+dipol)            ewald-force                    non-local-force                 convergence-correction
 -----------------------------------------------------------------------------------------------
   0.764E-16 -.828E-16 -.108E-14   -.555E-19 -.680E-19 -.711E-14   -.520E-24 0.000E+00 0.258E-25   0.653E-16 -.102E-14 0.134E-15
   0.730E-16 -.786E-16 -.107E-14   -.211E-19 -.464E-19 -.178E-14   -.221E-23 0.258E-23 0.000E+00   0.591E-16 -.101E-14 -.549E-16
   0.902E-16 -.679E-16 0.218E-16   -.546E-19 -.377E-19 -.355E-14   0.718E-24 0.000E+00 -.258E-25   0.510E-16 -.101E-14 -.246E-15
   0.117E-15 -.431E-16 0.487E-15   -.229E-19 -.171E-19 -.726E-14   0.137E-23 -.217E-23 0.194E-25   0.669E-16 -.101E-14 -.315E-15
   0.851E-16 -.749E-16 -.125E-14   -.278E-19 -.343E-19 -.711E-14   -.520E-24 0.000E+00 0.258E-25   0.908E-16 -.102E-14 -.177E-15
   0.819E-16 -.757E-16 0.119E-14   0.391E-20 -.138E-19 -.355E-14   0.892E-24 -.103E-24 0.646E-26   0.850E-16 -.103E-14 0.333E-16
   0.766E-16 -.839E-16 0.882E-15   -.295E-19 -.513E-20 0.000E+00   0.113E-23 0.000E+00 0.000E+00   0.753E-16 -.104E-14 0.285E-15
   0.622E-16 -.949E-16 0.431E-15   0.484E-20 0.165E-19 0.709E-14   0.137E-23 -.191E-23 0.194E-25   0.677E-16 -.104E-14 0.344E-15
 -----------------------------------------------------------------------------------------------
   0.662E-15 -.602E-15 -.399E-15   -.203E-18 -.206E-18 -.233E-13   0.224E-23 -.160E-23 0.711E-25   0.561E-15 -.818E-14 0.261E-17
 
 
 POSITION                                       TOTAL-FORCE (eV/Angst)
 -----------------------------------------------------------------------------------
      0.00000      0.00000      0.00000         0.000000     -0.000000      0.000000
      0.00000      0.00000      0.50000         0.000000      0.000000     -0.000000
      0.00000      0.00000      1.00000        -0.000000     -0.000000     -0.000000
      0.00000      0.00000      1.50000        -0.000000     -0.000000      0.000000
      0.00000      0.00000      2.00000         0.000000      0.000000      0.000000
      0.00000      0.00000      2.50000        -0.000000     -0.000000     -0.000000
      0.00000      0.00000      3.00000        -0.000000     -0.000000      0.000000
      0.00000      0.00000      3.50000         0.000000     -0.000000      0.000000
 -----------------------------------------------------------------------------------
    total drift:                                0.000000     -0.000000     -0.000000


--------------------------------------------------------------------------------------------------------



  FREE ENERGIE OF THE ION-ELECTRON SYSTEM (eV)
  ---------------------------------------------------
  free  energy   TOTEN  =        14.31303092 eV

  energy  without entropy=       14.53870676  energy(sigma->0) =       14.42586884
 


--------------------------------------------------------------------------------------------------------


    POTLOK:  cpu time    0.2194: real time    0.2193


--------------------------------------------------------------------------------------------------------


     LOOP+:  cpu time    7.3201: real time    7.3586
    4ORBIT:  cpu time    0.0000: real time    0.0000

 total amount of memory used by VASP MPI-rank0    55471. kBytes
=======================================================================

   base      :      30000. kBytes
   nonl-proj :       1779. kBytes
   fftplans  :       5549. kBytes
   grid      :      17104. kBytes
   one-center:         19. kBytes
   wavefun   :       1020. kBytes
 
  
  
 General timing and accounting informations for this job:
 ========================================================
  
                  Total CPU time used (sec):        7.856
                            User time (sec):        7.463
                          System time (sec):        0.393
                         Elapsed time (sec):        8.241
  
                   Maximum memory used (kb):      190284.
                   Average memory used (kb):           0.
  
                          Minor page faults:       110640
                          Major page faults:            0
                 Voluntary context switches:          833
