<?xml version="1.0" encoding="ISO-8859-1"?>
<modeling>
 <generator>
  <i name="program" type="string">vasp </i>
  <i name="version" type="string">5.4.4.18Apr17-6-g9f103f2a35  </i>
  <i name="subversion" type="string">(build Aug 24 2024 05:40:03) complex            parallel </i>
  <i name="platform" type="string">IFC22_IMPI </i>
  <i name="date" type="string">2024 11 22 </i>
  <i name="time" type="string">21:37:53 </i>
 </generator>
 <incar>
  <i type="string" name="PREC">normal</i>
  <i type="int" name="ISPIN">     2</i>
  <i type="int" name="ICHARG">     2</i>
  <i type="int" name="NELM">   100</i>
  <i name="EDIFF">      0.00000100</i>
  <i type="int" name="NSW">     0</i>
  <i name="ENCUT">    300.00000000</i>
  <i name="NUPDOWN">      0.00000000</i>
  <i type="int" name="ISMEAR">     0</i>
  <i name="SIGMA">      0.20000000</i>
  <i type="logical" name="LWAVE"> F  </i>
  <i type="logical" name="LCHARG"> F  </i>
  <v type="int" name="KPOINT_BSE">    -1     0     0     0</v>
  <i type="int" name="NELM">   100</i>
 </incar>
 <structure name="primitive_cell" >
  <crystal>
   <varray name="basis" >
    <v>      15.00000000       0.00000000       0.00000000 </v>
    <v>       0.00000000      15.00000000       0.00000000 </v>
    <v>       0.00000000       0.00000000       0.50000000 </v>
   </varray>
   <i name="volume">    112.50000000 </i>
   <varray name="rec_basis" >
    <v>       0.06666667      -0.00000000       0.00000000 </v>
    <v>       0.00000000       0.06666667       0.00000000 </v>
    <v>      -0.00000000      -0.00000000       2.00000000 </v>
   </varray>
  </crystal>
  <varray name="positions" >
   <v>       0.00000000       0.00000000       0.00000000 </v>
  </varray>
 </structure>
 <varray name="primitive_index" >
  <v type="int" >        1 </v>
 </varray>
 <kpoints>
  <generation param="Gamma">
   <v type="int" name="divisions">       1        1        1 </v>
   <v name="usershift">      0.00000000       0.00000000       0.00000000 </v>
   <v name="genvec1">      1.00000000      -0.00000000       0.00000000 </v>
   <v name="genvec2">      0.00000000       1.00000000       0.00000000 </v>
   <v name="genvec3">      0.00000000      -0.00000000       1.00000000 </v>
   <v name="shift">      0.00000000       0.00000000       0.00000000 </v>
  </generation>
  <varray name="kpointlist" >
   <v>       0.00000000       0.00000000       0.00000000 </v>
  </varray>
  <varray name="weights" >
   <v>       1.00000000 </v>
  </varray>
 </kpoints>
 <parameters>
  <separator name="general" >
   <i type="string" name="SYSTEM">unknown system</i>
   <i type="logical" name="LCOMPAT"> F  </i>
  </separator>
  <separator name="electronic" >
   <i type="string" name="PREC">normal</i>
   <i name="ENMAX">    300.00000000</i>
   <i name="ENAUG">    400.00000000</i>
   <i name="EDIFF">      0.00000100</i>
   <i type="int" name="IALGO">    38</i>
   <i type="int" name="IWAVPR">    10</i>
   <i type="int" name="NBANDS">    12</i>
   <i name="NELECT">      8.00000000</i>
   <i type="int" name="TURBO">     0</i>
   <i type="int" name="IRESTART">     0</i>
   <i type="int" name="NREBOOT">     0</i>
   <i type="int" name="NMIN">     0</i>
   <i name="EREF">      0.00000000</i>
   <separator name="electronic smearing" >
    <i type="int" name="ISMEAR">     0</i>
    <i name="SIGMA">      0.20000000</i>
    <i name="KSPACING">      0.50000000</i>
    <i type="logical" name="KGAMMA"> T  </i>
   </separator>
   <separator name="electronic projectors" >
    <i type="logical" name="LREAL"> F  </i>
    <v name="ROPT">      0.00000000</v>
    <i type="int" name="LMAXPAW">  -100</i>
    <i type="int" name="LMAXMIX">     2</i>
    <i type="logical" name="NLSPLINE"> F  </i>
   </separator>
   <separator name="electronic startup" >
    <i type="int" name="ISTART">     0</i>
    <i type="int" name="ICHARG">     2</i>
    <i type="int" name="INIWAV">     1</i>
   </separator>
   <separator name="electronic spin" >
    <i type="int" name="ISPIN">     2</i>
    <i type="logical" name="LNONCOLLINEAR"> F  </i>
    <v name="MAGMOM">      0.00000000      0.00000000      0.00000000      0.00000000      0.00000000      0.00000000      0.00000000      0.00000000</v>
    <i name="NUPDOWN">      0.00000000</i>
    <i type="logical" name="LSORBIT"> F  </i>
    <v name="SAXIS">      0.00000000      0.00000000      1.00000000</v>
    <i type="logical" name="LSPIRAL"> F  </i>
    <v name="QSPIRAL">      0.00000000      0.00000000      0.00000000</v>
    <i type="logical" name="LZEROZ"> F  </i>
   </separator>
   <separator name="electronic exchange-correlation" >
    <i type="logical" name="LASPH"> F  </i>
    <i type="logical" name="LMETAGGA"> F  </i>
   </separator>
   <separator name="electronic convergence" >
    <i type="int" name="NELM">   100</i>
    <i type="int" name="NELMDL">    -5</i>
    <i type="int" name="NELMIN">     2</i>
    <i name="ENINI">    300.00000000</i>
    <separator name="electronic convergence detail" >
     <i type="logical" name="LDIAG"> T  </i>
     <i type="logical" name="LSUBROT"> F  </i>
     <i name="WEIMIN">      0.00000000</i>
     <i name="EBREAK">      0.00000002</i>
     <i name="DEPER">      0.30000000</i>
     <i type="int" name="NRMM">     4</i>
     <i name="TIME">      0.40000000</i>
    </separator>
   </separator>
   <separator name="electronic mixer" >
    <i name="AMIX">      0.40000000</i>
    <i name="BMIX">      1.00000000</i>
    <i name="AMIN">      0.10000000</i>
    <i name="AMIX_MAG">      1.60000000</i>
    <i name="BMIX_MAG">      1.00000000</i>
    <separator name="electronic mixer details" >
     <i type="int" name="IMIX">     4</i>
     <i type="logical" name="MIXFIRST"> F  </i>
     <i type="int" name="MAXMIX">   -45</i>
     <i name="WC">    100.00000000</i>
     <i type="int" name="INIMIX">     1</i>
     <i type="int" name="MIXPRE">     1</i>
     <i type="int" name="MREMOVE">     5</i>
    </separator>
   </separator>
   <separator name="electronic dipolcorrection" >
    <i type="logical" name="LDIPOL"> F  </i>
    <i type="logical" name="LMONO"> F  </i>
    <i type="int" name="IDIPOL">     0</i>
    <i name="EPSILON">      1.00000000</i>
    <v name="DIPOL">   -100.00000000   -100.00000000   -100.00000000</v>
    <i name="EFIELD">      0.00000000</i>
   </separator>
  </separator>
  <separator name="grids" >
   <i type="int" name="NGX">    64</i>
   <i type="int" name="NGY">    64</i>
   <i type="int" name="NGZ">    18</i>
   <i type="int" name="NGXF">   128</i>
   <i type="int" name="NGYF">   128</i>
   <i type="int" name="NGZF">    36</i>
   <i type="logical" name="ADDGRID"> F  </i>
  </separator>
  <separator name="ionic" >
   <i type="int" name="NSW">     0</i>
   <i type="int" name="IBRION">    -1</i>
   <i type="int" name="MDALGO">     0</i>
   <i type="int" name="ISIF">     2</i>
   <i name="PSTRESS">      0.00000000</i>
   <i name="EDIFFG">      0.00001000</i>
   <i type="int" name="NFREE">     0</i>
   <i name="POTIM">      0.50000000</i>
   <i name="SMASS">     -3.00000000</i>
   <i name="SCALEE">      1.00000000</i>
  </separator>
  <separator name="ionic md" >
   <i name="TEBEG">      0.00010000</i>
   <i name="TEEND">      0.00010000</i>
   <i type="int" name="NBLOCK">     1</i>
   <i type="int" name="KBLOCK">     1</i>
   <i type="int" name="NPACO">   256</i>
   <i name="APACO">     16.00000000</i>
  </separator>
  <separator name="symmetry" >
   <i type="int" name="ISYM">     2</i>
   <i name="SYMPREC">      0.00001000</i>
  </separator>
  <separator name="dos" >
   <i type="int" name="LORBIT">     0</i>
   <v name="RWIGS">     -1.00000000</v>
   <i type="int" name="NEDOS">   301</i>
   <i name="EMIN">     10.00000000</i>
   <i name="EMAX">    -10.00000000</i>
   <i name="EFERMI">      0.00000000</i>
  </separator>
  <separator name="writing" >
   <i type="int" name="NWRITE">     2</i>
   <i type="logical" name="LWAVE"> F  </i>
   <i type="logical" name="LDOWNSAMPLE"> F  </i>
   <i type="logical" name="LCHARG"> F  </i>
   <i type="logical" name="LPARD"> F  </i>
   <i type="logical" name="LVTOT"> F  </i>
   <i type="logical" name="LVHAR"> F  </i>
   <i type="logical" name="LELF"> F  </i>
   <i type="logical" name="LOPTICS"> F  </i>
   <v name="STM">      0.00000000      0.00000000      0.00000000      0.00000000      0.00000000      0.00000000      0.00000000</v>
  </separator>
  <separator name="performance" >
   <i type="int" name="NPAR">     4</i>
   <i type="int" name="NSIM">     4</i>
   <i type="int" name="NBLK">    -1</i>
   <i type="logical" name="LPLANE"> T  </i>
   <i type="logical" name="LSCALAPACK"> T  </i>
   <i type="logical" name="LSCAAWARE"> F  </i>
   <i type="logical" name="LSCALU"> F  </i>
   <i type="logical" name="LASYNC"> F  </i>
   <i type="logical" name="LORBITALREAL"> F  </i>
  </separator>
  <separator name="miscellaneous" >
   <i type="int" name="IDIOT">     3</i>
   <i type="int" name="ISPECIAL">     0</i>
   <i type="logical" name="LMUSIC"> F  </i>
   <v name="POMASS">      1.00000000</v>
   <v name="DARWINR">      0.00000000</v>
   <v name="DARWINV">      1.00000000</v>
   <i type="logical" name="LCORR"> T  </i>
  </separator>
  <i type="logical" name="GGA_COMPAT"> T  </i>
  <i type="logical" name="LBERRY"> F  </i>
  <i type="int" name="ICORELEVEL">     0</i>
  <i type="logical" name="LDAU"> F  </i>
  <i type="int" name="I_CONSTRAINED_M">     0</i>
  <separator name="electronic exchange-correlation" >
   <i type="string" name="GGA">--</i>
   <i type="int" name="VOSKOWN">     0</i>
   <i type="logical" name="LHFCALC"> F  </i>
   <i type="string" name="PRECFOCK"></i>
   <i type="logical" name="LSYMGRAD"> F  </i>
   <i type="logical" name="LHFONE"> F  </i>
   <i type="logical" name="LRHFCALC"> F  </i>
   <i type="logical" name="LTHOMAS"> F  </i>
   <i type="logical" name="LMODELHF"> F  </i>
   <i name="ENCUT4O">     -1.00000000</i>
   <i type="int" name="EXXOEP">     0</i>
   <i type="int" name="FOURORBIT">     0</i>
   <i name="AEXX">      0.00000000</i>
   <i name="HFALPHA">      0.00000000</i>
   <i name="MCALPHA">      0.00000000</i>
   <i name="ALDAX">      1.00000000</i>
   <i name="AGGAX">      1.00000000</i>
   <i name="ALDAC">      1.00000000</i>
   <i name="AGGAC">      1.00000000</i>
   <i type="int" name="NKREDX">     1</i>
   <i type="int" name="NKREDY">     1</i>
   <i type="int" name="NKREDZ">     1</i>
   <i type="logical" name="SHIFTRED"> F  </i>
   <i type="logical" name="ODDONLY"> F  </i>
   <i type="logical" name="EVENONLY"> F  </i>
   <i type="int" name="LMAXFOCK">     0</i>
   <i type="int" name="NMAXFOCKAE">     0</i>
   <i type="logical" name="LFOCKAEDFT"> F  </i>
   <i name="HFSCREEN">      0.00000000</i>
   <i name="HFSCREENC">      0.00000000</i>
   <i type="int" name="NBANDSGWLOW">     0</i>
  </separator>
  <separator name="vdW DFT" >
   <i type="logical" name="LUSE_VDW"> F  </i>
   <i name="Zab_VDW">     -0.84910000</i>
   <i name="PARAM1">      0.12340000</i>
   <i name="PARAM2">      1.00000000</i>
   <i name="PARAM3">      0.00000000</i>
  </separator>
  <separator name="model GW" >
   <i type="int" name="MODEL_GW">     0</i>
   <i name="MODEL_EPS0">     67.50000000</i>
   <i name="MODEL_ALPHA">      1.00000000</i>
  </separator>
  <separator name="linear response parameters" >
   <i type="logical" name="LEPSILON"> F  </i>
   <i type="logical" name="LRPA"> F  </i>
   <i type="logical" name="LNABLA"> F  </i>
   <i type="logical" name="LVEL"> F  </i>
   <i type="int" name="KINTER">     0</i>
   <i name="CSHIFT">      0.10000000</i>
   <i name="OMEGAMAX">     -1.00000000</i>
   <i name="DEG_THRESHOLD">      0.00200000</i>
   <i name="RTIME">     -0.10000000</i>
   <i name="WPLASMAI">      0.00000000</i>
   <v name="DFIELD">      0.00000000      0.00000000      0.00000000</v>
   <v name="WPLASMA">      0.00000000      0.00000000      0.00000000      0.00000000      0.00000000      0.00000000      0.00000000      0.00000000      0.00000000</v>
  </separator>
  <separator name="orbital magnetization" >
   <i type="logical" name="NUCIND"> F  </i>
   <v name="MAGPOS">      0.00000000      0.00000000      0.00000000</v>
   <i type="logical" name="LNICSALL"> T  </i>
   <i type="logical" name="ORBITALMAG"> F  </i>
   <i type="logical" name="LMAGBLOCH"> F  </i>
   <i type="logical" name="LCHIMAG"> F  </i>
   <i type="logical" name="LGAUGE"> T  </i>
   <i type="int" name="MAGATOM">     0</i>
   <v name="MAGDIPOL">      0.00000000      0.00000000      0.00000000</v>
   <v name="AVECCONST">      0.00000000      0.00000000      0.00000000</v>
  </separator>
  <separator name="response functions" >
   <i type="logical" name="LADDER"> F  </i>
   <i type="logical" name="LRPAFORCE"> F  </i>
   <i type="logical" name="LFXC"> F  </i>
   <i type="logical" name="LHARTREE"> T  </i>
   <i type="int" name="IBSE">     0</i>
   <v type="int" name="KPOINT">    -1     0     0     0</v>
   <i type="logical" name="LTCTE"> F  </i>
   <i type="logical" name="LTETE"> F  </i>
   <i type="logical" name="LTRIPLET"> F  </i>
   <i type="logical" name="LFXCEPS"> F  </i>
   <i type="logical" name="LFXHEG"> F  </i>
   <i type="int" name="NATURALO">     2</i>
   <i type="logical" name="L2ORDER"> F  </i>
   <i type="logical" name="LMP2LT"> F  </i>
   <i type="logical" name="LUSEW"> F  </i>
   <i name="ENCUTGW">     -2.00000000</i>
   <i name="ENCUTGWSOFT">     -2.00000000</i>
   <i name="ENCUTLF">     -1.00000000</i>
   <i type="int" name="LMAXMP2">    -1</i>
   <i name="SCISSOR">      0.00000000</i>
   <i type="int" name="NOMEGA">     0</i>
   <i type="int" name="NOMEGAR">     0</i>
   <i type="int" name="NBANDSGW">    -1</i>
   <i type="int" name="NBANDSO">    -1</i>
   <i type="int" name="NBANDSV">    -1</i>
   <i type="int" name="NELM">   100</i>
   <i type="int" name="NELMHF">     1</i>
   <i type="int" name="DIM">     3</i>
   <i type="int" name="ANTIRES">     0</i>
   <i name="OMEGAMAX">    -30.00000000</i>
   <i name="OMEGAMIN">    -30.00000000</i>
   <i name="OMEGATL">   -200.00000000</i>
   <i type="int" name="OMEGAGRID">   140</i>
   <i name="CSHIFT">     -0.10000000</i>
   <i type="logical" name="SELFENERGY"> F  </i>
   <i type="logical" name="LSPECTRAL"> F  </i>
   <i type="logical" name="LSPECTRALGW"> F  </i>
   <i type="logical" name="LSINGLES"> F  </i>
   <i type="logical" name="LFERMIGW"> F  </i>
   <i type="logical" name="ODDONLYGW"> F  </i>
   <i type="logical" name="EVENONLYGW"> F  </i>
   <i type="int" name="NKREDLFX">     1</i>
   <i type="int" name="NKREDLFY">     1</i>
   <i type="int" name="NKREDLFZ">     1</i>
   <i type="int" name="MAXMEM">  2800</i>
   <i type="int" name="TELESCOPE">     0</i>
   <i type="int" name="TAUPAR">     1</i>
   <i type="int" name="OMEGAPAR">    -1</i>
   <i name="LAMBDA">      1.00000000</i>
  </separator>
  <separator name="External order field" >
   <i name="OFIELD_KAPPA">      0.00000000</i>
   <v name="OFIELD_K">      0.00000000      0.00000000      0.00000000</v>
   <i name="OFIELD_Q6_NEAR">      0.00000000</i>
   <i name="OFIELD_Q6_FAR">      0.00000000</i>
   <i name="OFIELD_A">      0.00000000</i>
  </separator>
 </parameters>
 <atominfo>
  <atoms>       8 </atoms>
  <types>       1 </types>
  <array name="atoms" >
   <dimension dim="1">ion</dimension>
   <field type="string">element</field>
   <field type="int">atomtype</field>
   <set>
    <rc><c>H </c><c>   1</c></rc>
    <rc><c>H </c><c>   1</c></rc>
    <rc><c>H </c><c>   1</c></rc>
    <rc><c>H </c><c>   1</c></rc>
    <rc><c>H </c><c>   1</c></rc>
    <rc><c>H </c><c>   1</c></rc>
    <rc><c>H </c><c>   1</c></rc>
    <rc><c>H </c><c>   1</c></rc>
   </set>
  </array>
  <array name="atomtypes" >
   <dimension dim="1">type</dimension>
   <field type="int">atomspertype</field>
   <field type="string">element</field>
   <field>mass</field>
   <field>valence</field>
   <field type="string">pseudopotential</field>
   <set>
    <rc><c>   8</c><c>H </c><c>      1.00000000</c><c>      1.00000000</c><c>  PAW_PBE H 15Jun2001                   </c></rc>
   </set>
  </array>
 </atominfo>
 <structure name="initialpos" >
  <crystal>
   <varray name="basis" >
    <v>      15.00000000       0.00000000       0.00000000 </v>
    <v>       0.00000000      15.00000000       0.00000000 </v>
    <v>       0.00000000       0.00000000       4.00000000 </v>
   </varray>
   <i name="volume">    900.00000000 </i>
   <varray name="rec_basis" >
    <v>       0.06666667      -0.00000000       0.00000000 </v>
    <v>       0.00000000       0.06666667       0.00000000 </v>
    <v>      -0.00000000      -0.00000000       0.25000000 </v>
   </varray>
  </crystal>
  <varray name="positions" >
   <v>       0.00000000       0.00000000       0.00000000 </v>
   <v>       0.00000000       0.00000000       0.12500000 </v>
   <v>       0.00000000       0.00000000       0.25000000 </v>
   <v>       0.00000000       0.00000000       0.37500000 </v>
   <v>       0.00000000       0.00000000       0.50000000 </v>
   <v>       0.00000000       0.00000000       0.62500000 </v>
   <v>       0.00000000       0.00000000       0.75000000 </v>
   <v>       0.00000000       0.00000000       0.87500000 </v>
  </varray>
 </structure>
 <calculation>
  <scstep>
   <time name="dav">    0.15    0.15</time>
   <time name="total">    0.37    0.37</time>
   <energy>
    <i name="alphaZ">      0.17323858 </i>
    <i name="ewald">    454.97174080 </i>
    <i name="hartreedc">   -373.09842987 </i>
    <i name="XCdc">     23.37825233 </i>
    <i name="pawpsdc">     17.07221949 </i>
    <i name="pawaedc">    -17.14324176 </i>
    <i name="eentropy">     -0.06653198 </i>
    <i name="bandstr">   -170.03761790 </i>
    <i name="atom">     99.56620307 </i>
    <i name="e_fr_energy">     34.81583277 </i>
    <i name="e_wo_entrp">     34.88236475 </i>
    <i name="e_0_energy">     34.84909876 </i>
   </energy>
  </scstep>
  <scstep>
   <time name="dav">    0.12    0.12</time>
   <time name="total">    0.12    0.12</time>
   <energy>
    <i name="e_fr_energy">     12.20848543 </i>
    <i name="e_wo_entrp">     12.42659162 </i>
    <i name="e_0_energy">     12.31753852 </i>
   </energy>
  </scstep>
  <scstep>
   <time name="dav">    0.11    0.11</time>
   <time name="total">    0.11    0.11</time>
   <energy>
    <i name="e_fr_energy">     11.74092269 </i>
    <i name="e_wo_entrp">     11.96658132 </i>
    <i name="e_0_energy">     11.85375201 </i>
   </energy>
  </scstep>
  <scstep>
   <time name="dav">    0.15    0.15</time>
   <time name="total">    0.15    0.15</time>
   <energy>
    <i name="e_fr_energy">     11.73243698 </i>
    <i name="e_wo_entrp">     11.95811280 </i>
    <i name="e_0_energy">     11.84527489 </i>
   </energy>
  </scstep>
  <scstep>
   <time name="dav">    0.11    0.11</time>
   <time name="total">    0.17    0.17</time>
   <energy>
    <i name="e_fr_energy">     11.73236428 </i>
    <i name="e_wo_entrp">     11.95804011 </i>
    <i name="e_0_energy">     11.84520219 </i>
   </energy>
  </scstep>
  <scstep>
   <time name="dav">    0.12    0.12</time>
   <time name="total">    0.40    0.40</time>
   <energy>
    <i name="e_fr_energy">     13.63673467 </i>
    <i name="e_wo_entrp">     13.86241051 </i>
    <i name="e_0_energy">     13.74957259 </i>
   </energy>
  </scstep>
  <scstep>
   <time name="dav">    0.10    0.10</time>
   <time name="total">    0.38    0.38</time>
   <energy>
    <i name="e_fr_energy">     14.29854457 </i>
    <i name="e_wo_entrp">     14.52422040 </i>
    <i name="e_0_energy">     14.41138249 </i>
   </energy>
  </scstep>
  <scstep>
   <time name="dav">    0.12    0.12</time>
   <time name="total">    0.40    0.40</time>
   <energy>
    <i name="e_fr_energy">     14.31846341 </i>
    <i name="e_wo_entrp">     14.54413924 </i>
    <i name="e_0_energy">     14.43130133 </i>
   </energy>
  </scstep>
  <scstep>
   <time name="dav">    0.11    0.11</time>
   <time name="total">    0.38    0.38</time>
   <energy>
    <i name="e_fr_energy">     14.31658770 </i>
    <i name="e_wo_entrp">     14.54226353 </i>
    <i name="e_0_energy">     14.42942561 </i>
   </energy>
  </scstep>
  <scstep>
   <time name="dav">    0.11    0.11</time>
   <time name="total">    0.38    0.38</time>
   <energy>
    <i name="e_fr_energy">     14.31539787 </i>
    <i name="e_wo_entrp">     14.54107370 </i>
    <i name="e_0_energy">     14.42823579 </i>
   </energy>
  </scstep>
  <scstep>
   <time name="dav">    0.10    0.10</time>
   <time name="total">    0.37    0.37</time>
   <energy>
    <i name="e_fr_energy">     14.31442039 </i>
    <i name="e_wo_entrp">     14.54009623 </i>
    <i name="e_0_energy">     14.42725831 </i>
   </energy>
  </scstep>
  <scstep>
   <time name="dav">    0.10    0.10</time>
   <time name="total">    0.37    0.41</time>
   <energy>
    <i name="e_fr_energy">     14.31388842 </i>
    <i name="e_wo_entrp">     14.53956425 </i>
    <i name="e_0_energy">     14.42672634 </i>
   </energy>
  </scstep>
  <scstep>
   <time name="dav">    0.10    0.10</time>
   <time name="total">    0.37    0.37</time>
   <energy>
    <i name="e_fr_energy">     14.31337435 </i>
    <i name="e_wo_entrp">     14.53905018 </i>
    <i name="e_0_energy">     14.42621226 </i>
   </energy>
  </scstep>
  <scstep>
   <time name="dav">    0.10    0.10</time>
   <time name="total">    0.38    0.38</time>
   <energy>
    <i name="e_fr_energy">     14.31324168 </i>
    <i name="e_wo_entrp">     14.53891751 </i>
    <i name="e_0_energy">     14.42607959 </i>
   </energy>
  </scstep>
  <scstep>
   <time name="dav">    0.10    0.10</time>
   <time name="total">    0.37    0.37</time>
   <energy>
    <i name="e_fr_energy">     14.31308721 </i>
    <i name="e_wo_entrp">     14.53876304 </i>
    <i name="e_0_energy">     14.42592513 </i>
   </energy>
  </scstep>
  <scstep>
   <time name="dav">    0.10    0.10</time>
   <time name="total">    0.37    0.37</time>
   <energy>
    <i name="e_fr_energy">     14.31307589 </i>
    <i name="e_wo_entrp">     14.53875172 </i>
    <i name="e_0_energy">     14.42591380 </i>
   </energy>
  </scstep>
  <scstep>
   <time name="dav">    0.10    0.10</time>
   <time name="total">    0.38    0.38</time>
   <energy>
    <i name="e_fr_energy">     14.31304713 </i>
    <i name="e_wo_entrp">     14.53872296 </i>
    <i name="e_0_energy">     14.42588505 </i>
   </energy>
  </scstep>
  <scstep>
   <time name="dav">    0.10    0.10</time>
   <time name="total">    0.38    0.38</time>
   <energy>
    <i name="e_fr_energy">     14.31303632 </i>
    <i name="e_wo_entrp">     14.53871215 </i>
    <i name="e_0_energy">     14.42587423 </i>
   </energy>
  </scstep>
  <scstep>
   <time name="dav">    0.10    0.10</time>
   <time name="total">    0.38    0.38</time>
   <energy>
    <i name="e_fr_energy">     14.31303356 </i>
    <i name="e_wo_entrp">     14.53870940 </i>
    <i name="e_0_energy">     14.42587148 </i>
   </energy>
  </scstep>
  <scstep>
   <time name="dav">    0.10    0.10</time>
   <time name="total">    0.38    0.38</time>
   <energy>
    <i name="e_fr_energy">     14.31303135 </i>
    <i name="e_wo_entrp">     14.53870718 </i>
    <i name="e_0_energy">     14.42586926 </i>
   </energy>
  </scstep>
  <scstep>
   <time name="dav">    0.10    0.10</time>
   <time name="total">    0.32    0.31</time>
   <energy>
    <i name="alphaZ">      0.17323858 </i>
    <i name="ewald">    454.97174080 </i>
    <i name="hartreedc">   -394.79010091 </i>
    <i name="XCdc">     25.83710164 </i>
    <i name="pawpsdc">    291.47833300 </i>
    <i name="pawaedc">   -292.14579460 </i>
    <i name="eentropy">     -0.22567583 </i>
    <i name="bandstr">   -170.55201483 </i>
    <i name="atom">     99.56620307 </i>
    <i name="e_fr_energy">     14.31303092 </i>
    <i name="e_wo_entrp">     14.53870676 </i>
    <i name="e_0_energy">     14.42586884 </i>
   </energy>
  </scstep>
  <structure>
   <crystal>
    <varray name="basis" >
     <v>      15.00000000       0.00000000       0.00000000 </v>
     <v>       0.00000000      15.00000000       0.00000000 </v>
     <v>       0.00000000       0.00000000       4.00000000 </v>
    </varray>
    <i name="volume">    900.00000000 </i>
    <varray name="rec_basis" >
     <v>       0.06666667      -0.00000000       0.00000000 </v>
     <v>       0.00000000       0.06666667       0.00000000 </v>
     <v>      -0.00000000      -0.00000000       0.25000000 </v>
    </varray>
   </crystal>
   <varray name="positions" >
    <v>       0.00000000       0.00000000       0.00000000 </v>
    <v>       0.00000000       0.00000000       0.12500000 </v>
    <v>       0.00000000       0.00000000       0.25000000 </v>
    <v>       0.00000000       0.00000000       0.37500000 </v>
    <v>       0.00000000       0.00000000       0.50000000 </v>
    <v>       0.00000000       0.00000000       0.62500000 </v>
    <v>       0.00000000       0.00000000       0.75000000 </v>
    <v>       0.00000000       0.00000000       0.87500000 </v>
   </varray>
  </structure>
  <varray name="forces" >
   <v>       0.00000000      -0.00000000       0.00000000 </v>
   <v>       0.00000000       0.00000000      -0.00000000 </v>
   <v>      -0.00000000      -0.00000000      -0.00000000 </v>
   <v>      -0.00000000      -0.00000000       0.00000000 </v>
   <v>       0.00000000       0.00000000       0.00000000 </v>
   <v>      -0.00000000      -0.00000000      -0.00000000 </v>
   <v>      -0.00000000      -0.00000000       0.00000000 </v>
   <v>       0.00000000      -0.00000000       0.00000000 </v>
  </varray>
  <varray name="stress" >
   <v>      -5.67060832      -0.00000000      -0.00000000 </v>
   <v>      -0.00000000      -5.67060832      -0.00000000 </v>
   <v>      -0.00000000      -0.00000000     200.14849024 </v>
  </varray>
  <energy>
   <i name="e_fr_energy">     14.31303092 </i>
   <i name="e_wo_entrp">     14.42586884 </i>
   <i name="e_0_energy">     -0.22567583 </i>
  </energy>
  <time name="totalsc">    7.32    7.36</time>
  <eigenvalues>
   <array>
    <dimension dim="1">band</dimension>
    <dimension dim="2">kpoint</dimension>
    <dimension dim="3">spin</dimension>
    <field>eigene</field>
    <field>occ</field>
    <set>
     <set comment="spin 1">
      <set comment="kpoint 1">
       <r>  -33.4014    1.0000 </r>
       <r>  -24.0214    1.0000 </r>
       <r>  -24.0214    1.0000 </r>
       <r>   -3.8319    0.5000 </r>
       <r>   -3.8319    0.5000 </r>
       <r>   -2.4155    0.0000 </r>
       <r>    0.1397    0.0000 </r>
       <r>    0.2318    0.0000 </r>
       <r>    0.3395    0.0000 </r>
       <r>    0.3395    0.0000 </r>
       <r>    0.4903    0.0000 </r>
       <r>    1.1330    0.0000 </r>
      </set>
     </set>
     <set comment="spin 2">
      <set comment="kpoint 1">
       <r>  -33.4014    1.0000 </r>
       <r>  -24.0214    1.0000 </r>
       <r>  -24.0214    1.0000 </r>
       <r>   -3.8319    0.5000 </r>
       <r>   -3.8319    0.5000 </r>
       <r>   -2.4155    0.0000 </r>
       <r>    0.1418    0.0000 </r>
       <r>    0.2333    0.0000 </r>
       <r>    0.3388    0.0000 </r>
       <r>    0.3388    0.0000 </r>
       <r>    0.4893    0.0000 </r>
       <r>    1.1402    0.0000 </r>
      </set>
     </set>
    </set>
   </array>
  </eigenvalues>
  <separator name="orbital magnetization" >
   <v name="MAGDIPOLOUT">      0.00000000      0.00000000      0.00000000</v>
  </separator>
  <dos>
   <i name="efermi">     -3.83185693 </i>
   <total>
    <array>
     <dimension dim="1">gridpoints</dimension>
     <dimension dim="2">spin</dimension>
     <field>energy</field>
     <field>total</field>
     <field>integrated</field>
     <set>
      <set comment="spin 1">
       <r>   -35.4014     0.0000     0.0000 </r>
       <r>   -35.2729     0.0000     0.0000 </r>
       <r>   -35.1444     0.0000     0.0000 </r>
       <r>   -35.0160     0.0000     0.0000 </r>
       <r>   -34.8875     0.0000     0.0000 </r>
       <r>   -34.7590     0.0000     0.0000 </r>
       <r>   -34.6305     0.0000     0.0000 </r>
       <r>   -34.5021     0.0000     0.0000 </r>
       <r>   -34.3736     0.0000     0.0000 </r>
       <r>   -34.2451     0.0000     0.0000 </r>
       <r>   -34.1166     0.0000     0.0000 </r>
       <r>   -33.9882     0.0003     0.0000 </r>
       <r>   -33.8597     0.0090     0.0012 </r>
       <r>   -33.7312     0.1439     0.0197 </r>
       <r>   -33.6028     1.0489     0.1544 </r>
       <r>   -33.4743     3.5159     0.6061 </r>
       <r>   -33.3458     5.4442     1.3055 </r>
       <r>   -33.2173     3.9019     1.8068 </r>
       <r>   -33.0889     1.2925     1.9729 </r>
       <r>   -32.9604     0.1970     1.9982 </r>
       <r>   -32.8319     0.0137     1.9999 </r>
       <r>   -32.7035     0.0004     2.0000 </r>
       <r>   -32.5750     0.0000     2.0000 </r>
       <r>   -32.4465     0.0000     2.0000 </r>
       <r>   -32.3180     0.0000     2.0000 </r>
       <r>   -32.1896     0.0000     2.0000 </r>
       <r>   -32.0611     0.0000     2.0000 </r>
       <r>   -31.9326     0.0000     2.0000 </r>
       <r>   -31.8042     0.0000     2.0000 </r>
       <r>   -31.6757     0.0000     2.0000 </r>
       <r>   -31.5472     0.0000     2.0000 </r>
       <r>   -31.4187     0.0000     2.0000 </r>
       <r>   -31.2903     0.0000     2.0000 </r>
       <r>   -31.1618     0.0000     2.0000 </r>
       <r>   -31.0333     0.0000     2.0000 </r>
       <r>   -30.9048     0.0000     2.0000 </r>
       <r>   -30.7764     0.0000     2.0000 </r>
       <r>   -30.6479     0.0000     2.0000 </r>
       <r>   -30.5194     0.0000     2.0000 </r>
       <r>   -30.3910     0.0000     2.0000 </r>
       <r>   -30.2625     0.0000     2.0000 </r>
       <r>   -30.1340     0.0000     2.0000 </r>
       <r>   -30.0055     0.0000     2.0000 </r>
       <r>   -29.8771     0.0000     2.0000 </r>
       <r>   -29.7486     0.0000     2.0000 </r>
       <r>   -29.6201     0.0000     2.0000 </r>
       <r>   -29.4917     0.0000     2.0000 </r>
       <r>   -29.3632     0.0000     2.0000 </r>
       <r>   -29.2347     0.0000     2.0000 </r>
       <r>   -29.1062     0.0000     2.0000 </r>
       <r>   -28.9778     0.0000     2.0000 </r>
       <r>   -28.8493     0.0000     2.0000 </r>
       <r>   -28.7208     0.0000     2.0000 </r>
       <r>   -28.5924     0.0000     2.0000 </r>
       <r>   -28.4639     0.0000     2.0000 </r>
       <r>   -28.3354     0.0000     2.0000 </r>
       <r>   -28.2069     0.0000     2.0000 </r>
       <r>   -28.0785     0.0000     2.0000 </r>
       <r>   -27.9500     0.0000     2.0000 </r>
       <r>   -27.8215     0.0000     2.0000 </r>
       <r>   -27.6930     0.0000     2.0000 </r>
       <r>   -27.5646     0.0000     2.0000 </r>
       <r>   -27.4361     0.0000     2.0000 </r>
       <r>   -27.3076     0.0000     2.0000 </r>
       <r>   -27.1792     0.0000     2.0000 </r>
       <r>   -27.0507     0.0000     2.0000 </r>
       <r>   -26.9222     0.0000     2.0000 </r>
       <r>   -26.7937     0.0000     2.0000 </r>
       <r>   -26.6653     0.0000     2.0000 </r>
       <r>   -26.5368     0.0000     2.0000 </r>
       <r>   -26.4083     0.0000     2.0000 </r>
       <r>   -26.2799     0.0000     2.0000 </r>
       <r>   -26.1514     0.0000     2.0000 </r>
       <r>   -26.0229     0.0000     2.0000 </r>
       <r>   -25.8944     0.0000     2.0000 </r>
       <r>   -25.7660     0.0000     2.0000 </r>
       <r>   -25.6375     0.0000     2.0000 </r>
       <r>   -25.5090     0.0000     2.0000 </r>
       <r>   -25.3806     0.0000     2.0000 </r>
       <r>   -25.2521     0.0000     2.0000 </r>
       <r>   -25.1236     0.0000     2.0000 </r>
       <r>   -24.9951     0.0000     2.0000 </r>
       <r>   -24.8667     0.0000     2.0000 </r>
       <r>   -24.7382     0.0000     2.0000 </r>
       <r>   -24.6097     0.0005     2.0001 </r>
       <r>   -24.4812     0.0174     2.0023 </r>
       <r>   -24.3528     0.2797     2.0382 </r>
       <r>   -24.2243     2.0584     2.3027 </r>
       <r>   -24.0958     6.9631     3.1972 </r>
       <r>   -23.9674    10.8810     4.5952 </r>
       <r>   -23.8389     7.8700     5.6062 </r>
       <r>   -23.7104     2.6309     5.9442 </r>
       <r>   -23.5819     0.4047     5.9962 </r>
       <r>   -23.4535     0.0285     5.9999 </r>
       <r>   -23.3250     0.0009     6.0000 </r>
       <r>   -23.1965     0.0000     6.0000 </r>
       <r>   -23.0681     0.0000     6.0000 </r>
       <r>   -22.9396     0.0000     6.0000 </r>
       <r>   -22.8111     0.0000     6.0000 </r>
       <r>   -22.6826     0.0000     6.0000 </r>
       <r>   -22.5542     0.0000     6.0000 </r>
       <r>   -22.4257     0.0000     6.0000 </r>
       <r>   -22.2972     0.0000     6.0000 </r>
       <r>   -22.1688     0.0000     6.0000 </r>
       <r>   -22.0403     0.0000     6.0000 </r>
       <r>   -21.9118     0.0000     6.0000 </r>
       <r>   -21.7833     0.0000     6.0000 </r>
       <r>   -21.6549     0.0000     6.0000 </r>
       <r>   -21.5264     0.0000     6.0000 </r>
       <r>   -21.3979     0.0000     6.0000 </r>
       <r>   -21.2694     0.0000     6.0000 </r>
       <r>   -21.1410     0.0000     6.0000 </r>
       <r>   -21.0125     0.0000     6.0000 </r>
       <r>   -20.8840     0.0000     6.0000 </r>
       <r>   -20.7556     0.0000     6.0000 </r>
       <r>   -20.6271     0.0000     6.0000 </r>
       <r>   -20.4986     0.0000     6.0000 </r>
       <r>   -20.3701     0.0000     6.0000 </r>
       <r>   -20.2417     0.0000     6.0000 </r>
       <r>   -20.1132     0.0000     6.0000 </r>
       <r>   -19.9847     0.0000     6.0000 </r>
       <r>   -19.8563     0.0000     6.0000 </r>
       <r>   -19.7278     0.0000     6.0000 </r>
       <r>   -19.5993     0.0000     6.0000 </r>
       <r>   -19.4708     0.0000     6.0000 </r>
       <r>   -19.3424     0.0000     6.0000 </r>
       <r>   -19.2139     0.0000     6.0000 </r>
       <r>   -19.0854     0.0000     6.0000 </r>
       <r>   -18.9570     0.0000     6.0000 </r>
       <r>   -18.8285     0.0000     6.0000 </r>
       <r>   -18.7000     0.0000     6.0000 </r>
       <r>   -18.5715     0.0000     6.0000 </r>
       <r>   -18.4431     0.0000     6.0000 </r>
       <r>   -18.3146     0.0000     6.0000 </r>
       <r>   -18.1861     0.0000     6.0000 </r>
       <r>   -18.0576     0.0000     6.0000 </r>
       <r>   -17.9292     0.0000     6.0000 </r>
       <r>   -17.8007     0.0000     6.0000 </r>
       <r>   -17.6722     0.0000     6.0000 </r>
       <r>   -17.5438     0.0000     6.0000 </r>
       <r>   -17.4153     0.0000     6.0000 </r>
       <r>   -17.2868     0.0000     6.0000 </r>
       <r>   -17.1583     0.0000     6.0000 </r>
       <r>   -17.0299     0.0000     6.0000 </r>
       <r>   -16.9014     0.0000     6.0000 </r>
       <r>   -16.7729     0.0000     6.0000 </r>
       <r>   -16.6445     0.0000     6.0000 </r>
       <r>   -16.5160     0.0000     6.0000 </r>
       <r>   -16.3875     0.0000     6.0000 </r>
       <r>   -16.2590     0.0000     6.0000 </r>
       <r>   -16.1306     0.0000     6.0000 </r>
       <r>   -16.0021     0.0000     6.0000 </r>
       <r>   -15.8736     0.0000     6.0000 </r>
       <r>   -15.7451     0.0000     6.0000 </r>
       <r>   -15.6167     0.0000     6.0000 </r>
       <r>   -15.4882     0.0000     6.0000 </r>
       <r>   -15.3597     0.0000     6.0000 </r>
       <r>   -15.2313     0.0000     6.0000 </r>
       <r>   -15.1028     0.0000     6.0000 </r>
       <r>   -14.9743     0.0000     6.0000 </r>
       <r>   -14.8458     0.0000     6.0000 </r>
       <r>   -14.7174     0.0000     6.0000 </r>
       <r>   -14.5889     0.0000     6.0000 </r>
       <r>   -14.4604     0.0000     6.0000 </r>
       <r>   -14.3320     0.0000     6.0000 </r>
       <r>   -14.2035     0.0000     6.0000 </r>
       <r>   -14.0750     0.0000     6.0000 </r>
       <r>   -13.9465     0.0000     6.0000 </r>
       <r>   -13.8181     0.0000     6.0000 </r>
       <r>   -13.6896     0.0000     6.0000 </r>
       <r>   -13.5611     0.0000     6.0000 </r>
       <r>   -13.4327     0.0000     6.0000 </r>
       <r>   -13.3042     0.0000     6.0000 </r>
       <r>   -13.1757     0.0000     6.0000 </r>
       <r>   -13.0472     0.0000     6.0000 </r>
       <r>   -12.9188     0.0000     6.0000 </r>
       <r>   -12.7903     0.0000     6.0000 </r>
       <r>   -12.6618     0.0000     6.0000 </r>
       <r>   -12.5333     0.0000     6.0000 </r>
       <r>   -12.4049     0.0000     6.0000 </r>
       <r>   -12.2764     0.0000     6.0000 </r>
       <r>   -12.1479     0.0000     6.0000 </r>
       <r>   -12.0195     0.0000     6.0000 </r>
       <r>   -11.8910     0.0000     6.0000 </r>
       <r>   -11.7625     0.0000     6.0000 </r>
       <r>   -11.6340     0.0000     6.0000 </r>
       <r>   -11.5056     0.0000     6.0000 </r>
       <r>   -11.3771     0.0000     6.0000 </r>
       <r>   -11.2486     0.0000     6.0000 </r>
       <r>   -11.1202     0.0000     6.0000 </r>
       <r>   -10.9917     0.0000     6.0000 </r>
       <r>   -10.8632     0.0000     6.0000 </r>
       <r>   -10.7347     0.0000     6.0000 </r>
       <r>   -10.6063     0.0000     6.0000 </r>
       <r>   -10.4778     0.0000     6.0000 </r>
       <r>   -10.3493     0.0000     6.0000 </r>
       <r>   -10.2209     0.0000     6.0000 </r>
       <r>   -10.0924     0.0000     6.0000 </r>
       <r>    -9.9639     0.0000     6.0000 </r>
       <r>    -9.8354     0.0000     6.0000 </r>
       <r>    -9.7070     0.0000     6.0000 </r>
       <r>    -9.5785     0.0000     6.0000 </r>
       <r>    -9.4500     0.0000     6.0000 </r>
       <r>    -9.3215     0.0000     6.0000 </r>
       <r>    -9.1931     0.0000     6.0000 </r>
       <r>    -9.0646     0.0000     6.0000 </r>
       <r>    -8.9361     0.0000     6.0000 </r>
       <r>    -8.8077     0.0000     6.0000 </r>
       <r>    -8.6792     0.0000     6.0000 </r>
       <r>    -8.5507     0.0000     6.0000 </r>
       <r>    -8.4222     0.0000     6.0000 </r>
       <r>    -8.2938     0.0000     6.0000 </r>
       <r>    -8.1653     0.0000     6.0000 </r>
       <r>    -8.0368     0.0000     6.0000 </r>
       <r>    -7.9084     0.0000     6.0000 </r>
       <r>    -7.7799     0.0000     6.0000 </r>
       <r>    -7.6514     0.0000     6.0000 </r>
       <r>    -7.5229     0.0000     6.0000 </r>
       <r>    -7.3945     0.0000     6.0000 </r>
       <r>    -7.2660     0.0000     6.0000 </r>
       <r>    -7.1375     0.0000     6.0000 </r>
       <r>    -7.0091     0.0000     6.0000 </r>
       <r>    -6.8806     0.0000     6.0000 </r>
       <r>    -6.7521     0.0000     6.0000 </r>
       <r>    -6.6236     0.0000     6.0000 </r>
       <r>    -6.4952     0.0000     6.0000 </r>
       <r>    -6.3667     0.0000     6.0000 </r>
       <r>    -6.2382     0.0000     6.0000 </r>
       <r>    -6.1097     0.0000     6.0000 </r>
       <r>    -5.9813     0.0000     6.0000 </r>
       <r>    -5.8528     0.0000     6.0000 </r>
       <r>    -5.7243     0.0000     6.0000 </r>
       <r>    -5.5959     0.0000     6.0000 </r>
       <r>    -5.4674     0.0000     6.0000 </r>
       <r>    -5.3389     0.0000     6.0000 </r>
       <r>    -5.2104     0.0000     6.0000 </r>
       <r>    -5.0820     0.0000     6.0000 </r>
       <r>    -4.9535     0.0000     6.0000 </r>
       <r>    -4.8250     0.0000     6.0000 </r>
       <r>    -4.6966     0.0000     6.0000 </r>
       <r>    -4.5681     0.0000     6.0000 </r>
       <r>    -4.4396     0.0003     6.0000 </r>
       <r>    -4.3111     0.0107     6.0014 </r>
       <r>    -4.1827     0.1933     6.0262 </r>
       <r>    -4.0542     1.6003     6.2318 </r>
       <r>    -3.9257     6.0862     7.0137 </r>
       <r>    -3.7973    10.6864     8.3866 </r>
       <r>    -3.6688     8.6841     9.5023 </r>
       <r>    -3.5403     3.2630     9.9215 </r>
       <r>    -3.4118     0.5646     9.9940 </r>
       <r>    -3.2834     0.0447     9.9998 </r>
       <r>    -3.1549     0.0016    10.0000 </r>
       <r>    -3.0264     0.0001    10.0000 </r>
       <r>    -2.8979     0.0049    10.0006 </r>
       <r>    -2.7695     0.0909    10.0123 </r>
       <r>    -2.6410     0.7669    10.1109 </r>
       <r>    -2.5125     2.9726    10.4928 </r>
       <r>    -2.3841     5.3188    11.1761 </r>
       <r>    -2.2556     4.4044    11.7419 </r>
       <r>    -2.1271     1.6865    11.9586 </r>
       <r>    -1.9986     0.2974    11.9968 </r>
       <r>    -1.8702     0.0240    11.9999 </r>
       <r>    -1.7417     0.0009    12.0000 </r>
       <r>    -1.6132     0.0000    12.0000 </r>
       <r>    -1.4848     0.0000    12.0000 </r>
       <r>    -1.3563     0.0000    12.0000 </r>
       <r>    -1.2278     0.0000    12.0000 </r>
       <r>    -1.0993     0.0000    12.0000 </r>
       <r>    -0.9709     0.0000    12.0000 </r>
       <r>    -0.8424     0.0000    12.0000 </r>
       <r>    -0.7139     0.0000    12.0000 </r>
       <r>    -0.5855     0.0000    12.0000 </r>
       <r>    -0.4570     0.0002    12.0000 </r>
       <r>    -0.3285     0.0077    12.0010 </r>
       <r>    -0.2000     0.1388    12.0188 </r>
       <r>    -0.0716     1.2125    12.1746 </r>
       <r>     0.0569     5.3994    12.8683 </r>
       <r>     0.1854    13.3171    14.5791 </r>
       <r>     0.3139    19.9706    17.1448 </r>
       <r>     0.4423    19.3551    19.6314 </r>
       <r>     0.5708    12.2739    21.2082 </r>
       <r>     0.6993     4.9154    21.8397 </r>
       <r>     0.8277     1.3465    22.0127 </r>
       <r>     0.9562     1.5375    22.2102 </r>
       <r>     1.0847     4.0656    22.7326 </r>
       <r>     1.2132     5.4218    23.4291 </r>
       <r>     1.3416     3.3527    23.8598 </r>
       <r>     1.4701     0.9576    23.9829 </r>
       <r>     1.5986     0.1257    23.9990 </r>
       <r>     1.7270     0.0075    24.0000 </r>
       <r>     1.8555     0.0002    24.0000 </r>
       <r>     1.9840     0.0000    24.0000 </r>
       <r>     2.1125     0.0000    24.0000 </r>
       <r>     2.2409     0.0000    24.0000 </r>
       <r>     2.3694     0.0000    24.0000 </r>
       <r>     2.4979     0.0000    24.0000 </r>
       <r>     2.6263     0.0000    24.0000 </r>
       <r>     2.7548     0.0000    24.0000 </r>
       <r>     2.8833     0.0000    24.0000 </r>
       <r>     3.0118     0.0000    24.0000 </r>
       <r>     3.1402     0.0000    24.0000 </r>
      </set>
      <set comment="spin 2">
       <r>   -35.4014     0.0000     0.0000 </r>
       <r>   -35.2729     0.0000     0.0000 </r>
       <r>   -35.1444     0.0000     0.0000 </r>
       <r>   -35.0160     0.0000     0.0000 </r>
       <r>   -34.8875     0.0000     0.0000 </r>
       <r>   -34.7590     0.0000     0.0000 </r>
       <r>   -34.6305     0.0000     0.0000 </r>
       <r>   -34.5021     0.0000     0.0000 </r>
       <r>   -34.3736     0.0000     0.0000 </r>
       <r>   -34.2451     0.0000     0.0000 </r>
       <r>   -34.1166     0.0000     0.0000 </r>
       <r>   -33.9882     0.0003     0.0000 </r>
       <r>   -33.8597     0.0090     0.0012 </r>
       <r>   -33.7312     0.1439     0.0197 </r>
       <r>   -33.6028     1.0489     0.1544 </r>
       <r>   -33.4743     3.5159     0.6061 </r>
       <r>   -33.3458     5.4442     1.3055 </r>
       <r>   -33.2173     3.9019     1.8068 </r>
       <r>   -33.0889     1.2925     1.9729 </r>
       <r>   -32.9604     0.1970     1.9982 </r>
       <r>   -32.8319     0.0137     1.9999 </r>
       <r>   -32.7035     0.0004     2.0000 </r>
       <r>   -32.5750     0.0000     2.0000 </r>
       <r>   -32.4465     0.0000     2.0000 </r>
       <r>   -32.3180     0.0000     2.0000 </r>
       <r>   -32.1896     0.0000     2.0000 </r>
       <r>   -32.0611     0.0000     2.0000 </r>
       <r>   -31.9326     0.0000     2.0000 </r>
       <r>   -31.8042     0.0000     2.0000 </r>
       <r>   -31.6757     0.0000     2.0000 </r>
       <r>   -31.5472     0.0000     2.0000 </r>
       <r>   -31.4187     0.0000     2.0000 </r>
       <r>   -31.2903     0.0000     2.0000 </r>
       <r>   -31.1618     0.0000     2.0000 </r>
       <r>   -31.0333     0.0000     2.0000 </r>
       <r>   -30.9048     0.0000     2.0000 </r>
       <r>   -30.7764     0.0000     2.0000 </r>
       <r>   -30.6479     0.0000     2.0000 </r>
       <r>   -30.5194     0.0000     2.0000 </r>
       <r>   -30.3910     0.0000     2.0000 </r>
       <r>   -30.2625     0.0000     2.0000 </r>
       <r>   -30.1340     0.0000     2.0000 </r>
       <r>   -30.0055     0.0000     2.0000 </r>
       <r>   -29.8771     0.0000     2.0000 </r>
       <r>   -29.7486     0.0000     2.0000 </r>
       <r>   -29.6201     0.0000     2.0000 </r>
       <r>   -29.4917     0.0000     2.0000 </r>
       <r>   -29.3632     0.0000     2.0000 </r>
       <r>   -29.2347     0.0000     2.0000 </r>
       <r>   -29.1062     0.0000     2.0000 </r>
       <r>   -28.9778     0.0000     2.0000 </r>
       <r>   -28.8493     0.0000     2.0000 </r>
       <r>   -28.7208     0.0000     2.0000 </r>
       <r>   -28.5924     0.0000     2.0000 </r>
       <r>   -28.4639     0.0000     2.0000 </r>
       <r>   -28.3354     0.0000     2.0000 </r>
       <r>   -28.2069     0.0000     2.0000 </r>
       <r>   -28.0785     0.0000     2.0000 </r>
       <r>   -27.9500     0.0000     2.0000 </r>
       <r>   -27.8215     0.0000     2.0000 </r>
       <r>   -27.6930     0.0000     2.0000 </r>
       <r>   -27.5646     0.0000     2.0000 </r>
       <r>   -27.4361     0.0000     2.0000 </r>
       <r>   -27.3076     0.0000     2.0000 </r>
       <r>   -27.1792     0.0000     2.0000 </r>
       <r>   -27.0507     0.0000     2.0000 </r>
       <r>   -26.9222     0.0000     2.0000 </r>
       <r>   -26.7937     0.0000     2.0000 </r>
       <r>   -26.6653     0.0000     2.0000 </r>
       <r>   -26.5368     0.0000     2.0000 </r>
       <r>   -26.4083     0.0000     2.0000 </r>
       <r>   -26.2799     0.0000     2.0000 </r>
       <r>   -26.1514     0.0000     2.0000 </r>
       <r>   -26.0229     0.0000     2.0000 </r>
       <r>   -25.8944     0.0000     2.0000 </r>
       <r>   -25.7660     0.0000     2.0000 </r>
       <r>   -25.6375     0.0000     2.0000 </r>
       <r>   -25.5090     0.0000     2.0000 </r>
       <r>   -25.3806     0.0000     2.0000 </r>
       <r>   -25.2521     0.0000     2.0000 </r>
       <r>   -25.1236     0.0000     2.0000 </r>
       <r>   -24.9951     0.0000     2.0000 </r>
       <r>   -24.8667     0.0000     2.0000 </r>
       <r>   -24.7382     0.0000     2.0000 </r>
       <r>   -24.6097     0.0005     2.0001 </r>
       <r>   -24.4812     0.0174     2.0023 </r>
       <r>   -24.3528     0.2797     2.0382 </r>
       <r>   -24.2243     2.0584     2.3027 </r>
       <r>   -24.0958     6.9631     3.1972 </r>
       <r>   -23.9674    10.8810     4.5952 </r>
       <r>   -23.8389     7.8700     5.6062 </r>
       <r>   -23.7104     2.6309     5.9442 </r>
       <r>   -23.5819     0.4047     5.9962 </r>
       <r>   -23.4535     0.0285     5.9999 </r>
       <r>   -23.3250     0.0009     6.0000 </r>
       <r>   -23.1965     0.0000     6.0000 </r>
       <r>   -23.0681     0.0000     6.0000 </r>
       <r>   -22.9396     0.0000     6.0000 </r>
       <r>   -22.8111     0.0000     6.0000 </r>
       <r>   -22.6826     0.0000     6.0000 </r>
       <r>   -22.5542     0.0000     6.0000 </r>
       <r>   -22.4257     0.0000     6.0000 </r>
       <r>   -22.2972     0.0000     6.0000 </r>
       <r>   -22.1688     0.0000     6.0000 </r>
       <r>   -22.0403     0.0000     6.0000 </r>
       <r>   -21.9118     0.0000     6.0000 </r>
       <r>   -21.7833     0.0000     6.0000 </r>
       <r>   -21.6549     0.0000     6.0000 </r>
       <r>   -21.5264     0.0000     6.0000 </r>
       <r>   -21.3979     0.0000     6.0000 </r>
       <r>   -21.2694     0.0000     6.0000 </r>
       <r>   -21.1410     0.0000     6.0000 </r>
       <r>   -21.0125     0.0000     6.0000 </r>
       <r>   -20.8840     0.0000     6.0000 </r>
       <r>   -20.7556     0.0000     6.0000 </r>
       <r>   -20.6271     0.0000     6.0000 </r>
       <r>   -20.4986     0.0000     6.0000 </r>
       <r>   -20.3701     0.0000     6.0000 </r>
       <r>   -20.2417     0.0000     6.0000 </r>
       <r>   -20.1132     0.0000     6.0000 </r>
       <r>   -19.9847     0.0000     6.0000 </r>
       <r>   -19.8563     0.0000     6.0000 </r>
       <r>   -19.7278     0.0000     6.0000 </r>
       <r>   -19.5993     0.0000     6.0000 </r>
       <r>   -19.4708     0.0000     6.0000 </r>
       <r>   -19.3424     0.0000     6.0000 </r>
       <r>   -19.2139     0.0000     6.0000 </r>
       <r>   -19.0854     0.0000     6.0000 </r>
       <r>   -18.9570     0.0000     6.0000 </r>
       <r>   -18.8285     0.0000     6.0000 </r>
       <r>   -18.7000     0.0000     6.0000 </r>
       <r>   -18.5715     0.0000     6.0000 </r>
       <r>   -18.4431     0.0000     6.0000 </r>
       <r>   -18.3146     0.0000     6.0000 </r>
       <r>   -18.1861     0.0000     6.0000 </r>
       <r>   -18.0576     0.0000     6.0000 </r>
       <r>   -17.9292     0.0000     6.0000 </r>
       <r>   -17.8007     0.0000     6.0000 </r>
       <r>   -17.6722     0.0000     6.0000 </r>
       <r>   -17.5438     0.0000     6.0000 </r>
       <r>   -17.4153     0.0000     6.0000 </r>
       <r>   -17.2868     0.0000     6.0000 </r>
       <r>   -17.1583     0.0000     6.0000 </r>
       <r>   -17.0299     0.0000     6.0000 </r>
       <r>   -16.9014     0.0000     6.0000 </r>
       <r>   -16.7729     0.0000     6.0000 </r>
       <r>   -16.6445     0.0000     6.0000 </r>
       <r>   -16.5160     0.0000     6.0000 </r>
       <r>   -16.3875     0.0000     6.0000 </r>
       <r>   -16.2590     0.0000     6.0000 </r>
       <r>   -16.1306     0.0000     6.0000 </r>
       <r>   -16.0021     0.0000     6.0000 </r>
       <r>   -15.8736     0.0000     6.0000 </r>
       <r>   -15.7451     0.0000     6.0000 </r>
       <r>   -15.6167     0.0000     6.0000 </r>
       <r>   -15.4882     0.0000     6.0000 </r>
       <r>   -15.3597     0.0000     6.0000 </r>
       <r>   -15.2313     0.0000     6.0000 </r>
       <r>   -15.1028     0.0000     6.0000 </r>
       <r>   -14.9743     0.0000     6.0000 </r>
       <r>   -14.8458     0.0000     6.0000 </r>
       <r>   -14.7174     0.0000     6.0000 </r>
       <r>   -14.5889     0.0000     6.0000 </r>
       <r>   -14.4604     0.0000     6.0000 </r>
       <r>   -14.3320     0.0000     6.0000 </r>
       <r>   -14.2035     0.0000     6.0000 </r>
       <r>   -14.0750     0.0000     6.0000 </r>
       <r>   -13.9465     0.0000     6.0000 </r>
       <r>   -13.8181     0.0000     6.0000 </r>
       <r>   -13.6896     0.0000     6.0000 </r>
       <r>   -13.5611     0.0000     6.0000 </r>
       <r>   -13.4327     0.0000     6.0000 </r>
       <r>   -13.3042     0.0000     6.0000 </r>
       <r>   -13.1757     0.0000     6.0000 </r>
       <r>   -13.0472     0.0000     6.0000 </r>
       <r>   -12.9188     0.0000     6.0000 </r>
       <r>   -12.7903     0.0000     6.0000 </r>
       <r>   -12.6618     0.0000     6.0000 </r>
       <r>   -12.5333     0.0000     6.0000 </r>
       <r>   -12.4049     0.0000     6.0000 </r>
       <r>   -12.2764     0.0000     6.0000 </r>
       <r>   -12.1479     0.0000     6.0000 </r>
       <r>   -12.0195     0.0000     6.0000 </r>
       <r>   -11.8910     0.0000     6.0000 </r>
       <r>   -11.7625     0.0000     6.0000 </r>
       <r>   -11.6340     0.0000     6.0000 </r>
       <r>   -11.5056     0.0000     6.0000 </r>
       <r>   -11.3771     0.0000     6.0000 </r>
       <r>   -11.2486     0.0000     6.0000 </r>
       <r>   -11.1202     0.0000     6.0000 </r>
       <r>   -10.9917     0.0000     6.0000 </r>
       <r>   -10.8632     0.0000     6.0000 </r>
       <r>   -10.7347     0.0000     6.0000 </r>
       <r>   -10.6063     0.0000     6.0000 </r>
       <r>   -10.4778     0.0000     6.0000 </r>
       <r>   -10.3493     0.0000     6.0000 </r>
       <r>   -10.2209     0.0000     6.0000 </r>
       <r>   -10.0924     0.0000     6.0000 </r>
       <r>    -9.9639     0.0000     6.0000 </r>
       <r>    -9.8354     0.0000     6.0000 </r>
       <r>    -9.7070     0.0000     6.0000 </r>
       <r>    -9.5785     0.0000     6.0000 </r>
       <r>    -9.4500     0.0000     6.0000 </r>
       <r>    -9.3215     0.0000     6.0000 </r>
       <r>    -9.1931     0.0000     6.0000 </r>
       <r>    -9.0646     0.0000     6.0000 </r>
       <r>    -8.9361     0.0000     6.0000 </r>
       <r>    -8.8077     0.0000     6.0000 </r>
       <r>    -8.6792     0.0000     6.0000 </r>
       <r>    -8.5507     0.0000     6.0000 </r>
       <r>    -8.4222     0.0000     6.0000 </r>
       <r>    -8.2938     0.0000     6.0000 </r>
       <r>    -8.1653     0.0000     6.0000 </r>
       <r>    -8.0368     0.0000     6.0000 </r>
       <r>    -7.9084     0.0000     6.0000 </r>
       <r>    -7.7799     0.0000     6.0000 </r>
       <r>    -7.6514     0.0000     6.0000 </r>
       <r>    -7.5229     0.0000     6.0000 </r>
       <r>    -7.3945     0.0000     6.0000 </r>
       <r>    -7.2660     0.0000     6.0000 </r>
       <r>    -7.1375     0.0000     6.0000 </r>
       <r>    -7.0091     0.0000     6.0000 </r>
       <r>    -6.8806     0.0000     6.0000 </r>
       <r>    -6.7521     0.0000     6.0000 </r>
       <r>    -6.6236     0.0000     6.0000 </r>
       <r>    -6.4952     0.0000     6.0000 </r>
       <r>    -6.3667     0.0000     6.0000 </r>
       <r>    -6.2382     0.0000     6.0000 </r>
       <r>    -6.1097     0.0000     6.0000 </r>
       <r>    -5.9813     0.0000     6.0000 </r>
       <r>    -5.8528     0.0000     6.0000 </r>
       <r>    -5.7243     0.0000     6.0000 </r>
       <r>    -5.5959     0.0000     6.0000 </r>
       <r>    -5.4674     0.0000     6.0000 </r>
       <r>    -5.3389     0.0000     6.0000 </r>
       <r>    -5.2104     0.0000     6.0000 </r>
       <r>    -5.0820     0.0000     6.0000 </r>
       <r>    -4.9535     0.0000     6.0000 </r>
       <r>    -4.8250     0.0000     6.0000 </r>
       <r>    -4.6966     0.0000     6.0000 </r>
       <r>    -4.5681     0.0000     6.0000 </r>
       <r>    -4.4396     0.0003     6.0000 </r>
       <r>    -4.3111     0.0106     6.0014 </r>
       <r>    -4.1827     0.1933     6.0262 </r>
       <r>    -4.0542     1.6003     6.2318 </r>
       <r>    -3.9257     6.0861     7.0137 </r>
       <r>    -3.7973    10.6864     8.3866 </r>
       <r>    -3.6688     8.6841     9.5023 </r>
       <r>    -3.5403     3.2631     9.9215 </r>
       <r>    -3.4118     0.5647     9.9940 </r>
       <r>    -3.2834     0.0447     9.9998 </r>
       <r>    -3.1549     0.0016    10.0000 </r>
       <r>    -3.0264     0.0001    10.0000 </r>
       <r>    -2.8979     0.0049    10.0006 </r>
       <r>    -2.7695     0.0909    10.0123 </r>
       <r>    -2.6410     0.7672    10.1109 </r>
       <r>    -2.5125     2.9731    10.4928 </r>
       <r>    -2.3841     5.3190    11.1762 </r>
       <r>    -2.2556     4.4040    11.7420 </r>
       <r>    -2.1271     1.6861    11.9586 </r>
       <r>    -1.9986     0.2973    11.9968 </r>
       <r>    -1.8702     0.0240    11.9999 </r>
       <r>    -1.7417     0.0009    12.0000 </r>
       <r>    -1.6132     0.0000    12.0000 </r>
       <r>    -1.4848     0.0000    12.0000 </r>
       <r>    -1.3563     0.0000    12.0000 </r>
       <r>    -1.2278     0.0000    12.0000 </r>
       <r>    -1.0993     0.0000    12.0000 </r>
       <r>    -0.9709     0.0000    12.0000 </r>
       <r>    -0.8424     0.0000    12.0000 </r>
       <r>    -0.7139     0.0000    12.0000 </r>
       <r>    -0.5855     0.0000    12.0000 </r>
       <r>    -0.4570     0.0002    12.0000 </r>
       <r>    -0.3285     0.0073    12.0010 </r>
       <r>    -0.2000     0.1335    12.0181 </r>
       <r>    -0.0716     1.1824    12.1700 </r>
       <r>     0.0569     5.3353    12.8555 </r>
       <r>     0.1854    13.3040    14.5647 </r>
       <r>     0.3139    20.0640    17.1423 </r>
       <r>     0.4423    19.4322    19.6388 </r>
       <r>     0.5708    12.2657    21.2146 </r>
       <r>     0.6993     4.8804    21.8416 </r>
       <r>     0.8277     1.3054    22.0093 </r>
       <r>     0.9562     1.4234    22.1922 </r>
       <r>     1.0847     3.9094    22.6944 </r>
       <r>     1.2132     5.4444    23.3939 </r>
       <r>     1.3416     3.5159    23.8456 </r>
       <r>     1.4701     1.0489    23.9803 </r>
       <r>     1.5986     0.1439    23.9988 </r>
       <r>     1.7270     0.0090    24.0000 </r>
       <r>     1.8555     0.0003    24.0000 </r>
       <r>     1.9840     0.0000    24.0000 </r>
       <r>     2.1125     0.0000    24.0000 </r>
       <r>     2.2409     0.0000    24.0000 </r>
       <r>     2.3694     0.0000    24.0000 </r>
       <r>     2.4979     0.0000    24.0000 </r>
       <r>     2.6263     0.0000    24.0000 </r>
       <r>     2.7548     0.0000    24.0000 </r>
       <r>     2.8833     0.0000    24.0000 </r>
       <r>     3.0118     0.0000    24.0000 </r>
       <r>     3.1402     0.0000    24.0000 </r>
      </set>
     </set>
    </array>
   </total>
  </dos>
 </calculation>
 <structure name="finalpos" >
  <crystal>
   <varray name="basis" >
    <v>      15.00000000       0.00000000       0.00000000 </v>
    <v>       0.00000000      15.00000000       0.00000000 </v>
    <v>       0.00000000       0.00000000       4.00000000 </v>
   </varray>
   <i name="volume">    900.00000000 </i>
   <varray name="rec_basis" >
    <v>       0.06666667      -0.00000000       0.00000000 </v>
    <v>       0.00000000       0.06666667       0.00000000 </v>
    <v>      -0.00000000      -0.00000000       0.25000000 </v>
   </varray>
  </crystal>
  <varray name="positions" >
   <v>       0.00000000       0.00000000       0.00000000 </v>
   <v>       0.00000000       0.00000000       0.12500000 </v>
   <v>       0.00000000       0.00000000       0.25000000 </v>
   <v>       0.00000000       0.00000000       0.37500000 </v>
   <v>       0.00000000       0.00000000       0.50000000 </v>
   <v>       0.00000000       0.00000000       0.62500000 </v>
   <v>       0.00000000       0.00000000       0.75000000 </v>
   <v>       0.00000000       0.00000000       0.87500000 </v>
  </varray>
 </structure>
</modeling>
