   8   8   0   0
  0.2250000E+03  0.1500000E-08  0.1500000E-08  0.8000000E-09  0.5000000E-15
  1.000000000000000E-004
  CAR 
 unknown system                          
      2.93359543    -15.36481107  301     -4.07953498      1.00000000
    -15.365  0.0000E+00  0.0000E+00  0.0000E+00  0.0000E+00
    -15.304  0.0000E+00  0.0000E+00  0.0000E+00  0.0000E+00
    -15.243  0.0000E+00  0.0000E+00  0.0000E+00  0.0000E+00
    -15.182  0.0000E+00  0.0000E+00  0.0000E+00  0.0000E+00
    -15.121  0.0000E+00  0.0000E+00  0.0000E+00  0.0000E+00
    -15.060  0.0000E+00  0.0000E+00  0.0000E+00  0.0000E+00
    -14.999  0.0000E+00  0.0000E+00  0.0000E+00  0.0000E+00
    -14.938  0.0000E+00  0.0000E+00  0.0000E+00  0.0000E+00
    -14.877  0.0000E+00  0.0000E+00  0.0000E+00  0.0000E+00
    -14.816  0.0000E+00  0.0000E+00  0.0000E+00  0.0000E+00
    -14.755  0.0000E+00  0.0000E+00  0.0000E+00  0.0000E+00
    -14.694  0.0000E+00  0.0000E+00  0.0000E+00  0.0000E+00
    -14.633  0.0000E+00  0.0000E+00  0.0000E+00  0.0000E+00
    -14.572  0.0000E+00  0.0000E+00  0.0000E+00  0.0000E+00
    -14.511  0.9101E-14  0.9101E-14  0.5551E-15  0.5551E-15
    -14.450  0.2676E-12  0.2676E-12  0.1688E-13  0.1688E-13
    -14.389  0.7006E-11  0.7006E-11  0.4442E-12  0.4442E-12
    -14.328  0.1526E-09  0.1526E-09  0.9755E-11  0.9755E-11
    -14.267  0.2767E-08  0.2767E-08  0.1785E-09  0.1785E-09
    -14.206  0.4172E-07  0.4172E-07  0.2723E-08  0.2723E-08
    -14.145  0.5233E-06  0.5233E-06  0.3464E-07  0.3464E-07
    -14.084  0.5463E-05  0.5463E-05  0.3678E-06  0.3678E-06
    -14.023  0.4745E-04  0.4745E-04  0.3262E-05  0.3262E-05
    -13.962  0.3430E-03  0.3430E-03  0.2418E-04  0.2418E-04
    -13.901  0.2064E-02  0.2063E-02  0.1500E-03  0.1500E-03
    -13.840  0.1033E-01  0.1033E-01  0.7803E-03  0.7803E-03
    -13.779  0.4307E-01  0.4307E-01  0.3407E-02  0.3407E-02
    -13.718  0.1494E+00  0.1494E+00  0.1252E-01  0.1252E-01
    -13.657  0.4316E+00  0.4316E+00  0.3885E-01  0.3885E-01
    -13.596  0.1038E+01  0.1038E+01  0.1022E+00  0.1022E+00
    -13.535  0.2078E+01  0.2078E+01  0.2289E+00  0.2289E+00
    -13.474  0.3464E+01  0.3464E+01  0.4402E+00  0.4402E+00
    -13.413  0.4807E+01  0.4807E+01  0.7334E+00  0.7334E+00
    -13.352  0.5556E+01  0.5556E+01  0.1072E+01  0.1072E+01
    -13.291  0.5346E+01  0.5346E+01  0.1398E+01  0.1398E+01
    -13.230  0.4283E+01  0.4283E+01  0.1660E+01  0.1660E+01
    -13.169  0.2857E+01  0.2857E+01  0.1834E+01  0.1834E+01
    -13.108  0.1587E+01  0.1587E+01  0.1931E+01  0.1931E+01
    -13.047  0.7338E+00  0.7338E+00  0.1975E+01  0.1975E+01
    -12.986  0.2825E+00  0.2825E+00  0.1993E+01  0.1993E+01
    -12.925  0.9056E-01  0.9056E-01  0.1998E+01  0.1998E+01
    -12.864  0.2416E-01  0.2416E-01  0.2000E+01  0.2000E+01
    -12.803  0.5367E-02  0.5367E-02  0.2000E+01  0.2000E+01
    -12.742  0.9922E-03  0.9922E-03  0.2000E+01  0.2000E+01
    -12.681  0.1527E-03  0.1527E-03  0.2000E+01  0.2000E+01
    -12.620  0.1955E-04  0.1955E-04  0.2000E+01  0.2000E+01
    -12.559  0.2083E-05  0.2083E-05  0.2000E+01  0.2000E+01
    -12.498  0.1847E-06  0.1848E-06  0.2000E+01  0.2000E+01
    -12.437  0.1363E-07  0.1363E-07  0.2000E+01  0.2000E+01
    -12.376  0.8367E-09  0.8367E-09  0.2000E+01  0.2000E+01
    -12.315  0.4273E-10  0.4273E-10  0.2000E+01  0.2000E+01
    -12.254  0.1813E-11  0.1813E-11  0.2000E+01  0.2000E+01
    -12.193  0.7645E-13  0.7645E-13  0.2000E+01  0.2000E+01
    -12.132  0.3531E-12  0.3531E-12  0.2000E+01  0.2000E+01
    -12.071  0.9425E-11  0.9425E-11  0.2000E+01  0.2000E+01
    -12.010  0.2102E-09  0.2102E-09  0.2000E+01  0.2000E+01
    -11.949  0.3897E-08  0.3897E-08  0.2000E+01  0.2000E+01
    -11.888  0.6013E-07  0.6013E-07  0.2000E+01  0.2000E+01
    -11.827  0.7718E-06  0.7718E-06  0.2000E+01  0.2000E+01
    -11.766  0.8242E-05  0.8242E-05  0.2000E+01  0.2000E+01
    -11.705  0.7325E-04  0.7325E-04  0.2000E+01  0.2000E+01
    -11.644  0.5417E-03  0.5417E-03  0.2000E+01  0.2000E+01
    -11.583  0.3334E-02  0.3334E-02  0.2000E+01  0.2000E+01
    -11.522  0.1708E-01  0.1708E-01  0.2001E+01  0.2001E+01
    -11.461  0.7284E-01  0.7284E-01  0.2006E+01  0.2006E+01
    -11.400  0.2586E+00  0.2586E+00  0.2021E+01  0.2021E+01
    -11.339  0.7641E+00  0.7641E+00  0.2068E+01  0.2068E+01
    -11.278  0.1880E+01  0.1880E+01  0.2183E+01  0.2183E+01
    -11.217  0.3850E+01  0.3850E+01  0.2418E+01  0.2418E+01
    -11.156  0.6566E+01  0.6566E+01  0.2818E+01  0.2818E+01
    -11.095  0.9323E+01  0.9323E+01  0.3387E+01  0.3387E+01
    -11.034  0.1102E+02  0.1102E+02  0.4059E+01  0.4059E+01
    -10.973  0.1085E+02  0.1085E+02  0.4721E+01  0.4721E+01
    -10.912  0.8894E+01  0.8894E+01  0.5263E+01  0.5263E+01
    -10.851  0.6070E+01  0.6070E+01  0.5634E+01  0.5634E+01
    -10.790  0.3449E+01  0.3449E+01  0.5844E+01  0.5844E+01
    -10.729  0.1632E+01  0.1632E+01  0.5943E+01  0.5943E+01
    -10.668  0.6427E+00  0.6427E+00  0.5983E+01  0.5983E+01
    -10.607  0.2108E+00  0.2108E+00  0.5996E+01  0.5996E+01
    -10.546  0.5753E-01  0.5753E-01  0.5999E+01  0.5999E+01
    -10.485  0.1307E-01  0.1307E-01  0.6000E+01  0.6000E+01
    -10.424  0.2473E-02  0.2473E-02  0.6000E+01  0.6000E+01
    -10.363  0.3893E-03  0.3893E-03  0.6000E+01  0.6000E+01
    -10.302  0.5100E-04  0.5100E-04  0.6000E+01  0.6000E+01
    -10.241  0.5561E-05  0.5561E-05  0.6000E+01  0.6000E+01
    -10.180  0.5045E-06  0.5045E-06  0.6000E+01  0.6000E+01
    -10.119  0.3809E-07  0.3809E-07  0.6000E+01  0.6000E+01
    -10.058  0.2392E-08  0.2392E-08  0.6000E+01  0.6000E+01
     -9.997  0.1250E-09  0.1250E-09  0.6000E+01  0.6000E+01
     -9.936  0.5431E-11  0.5431E-11  0.6000E+01  0.6000E+01
     -9.875  0.1966E-12  0.1966E-12  0.6000E+01  0.6000E+01
     -9.814  0.7281E-14  0.7281E-14  0.6000E+01  0.6000E+01
     -9.753  0.0000E+00  0.0000E+00  0.6000E+01  0.6000E+01
     -9.692  0.0000E+00  0.0000E+00  0.6000E+01  0.6000E+01
     -9.631  0.0000E+00  0.0000E+00  0.6000E+01  0.6000E+01
     -9.570  0.0000E+00  0.0000E+00  0.6000E+01  0.6000E+01
     -9.509  0.0000E+00  0.0000E+00  0.6000E+01  0.6000E+01
     -9.448  0.0000E+00  0.0000E+00  0.6000E+01  0.6000E+01
     -9.387  0.0000E+00  0.0000E+00  0.6000E+01  0.6000E+01
     -9.326  0.0000E+00  0.0000E+00  0.6000E+01  0.6000E+01
     -9.265  0.0000E+00  0.0000E+00  0.6000E+01  0.6000E+01
     -9.204  0.0000E+00  0.0000E+00  0.6000E+01  0.6000E+01
     -9.143  0.0000E+00  0.0000E+00  0.6000E+01  0.6000E+01
     -9.082  0.0000E+00  0.0000E+00  0.6000E+01  0.6000E+01
     -9.021  0.0000E+00  0.0000E+00  0.6000E+01  0.6000E+01
     -8.960  0.0000E+00  0.0000E+00  0.6000E+01  0.6000E+01
     -8.899  0.0000E+00  0.0000E+00  0.6000E+01  0.6000E+01
     -8.838  0.0000E+00  0.0000E+00  0.6000E+01  0.6000E+01
     -8.777  0.0000E+00  0.0000E+00  0.6000E+01  0.6000E+01
     -8.716  0.0000E+00  0.0000E+00  0.6000E+01  0.6000E+01
     -8.655  0.0000E+00  0.0000E+00  0.6000E+01  0.6000E+01
     -8.594  0.0000E+00  0.0000E+00  0.6000E+01  0.6000E+01
     -8.533  0.0000E+00  0.0000E+00  0.6000E+01  0.6000E+01
     -8.472  0.0000E+00  0.0000E+00  0.6000E+01  0.6000E+01
     -8.411  0.0000E+00  0.0000E+00  0.6000E+01  0.6000E+01
     -8.350  0.0000E+00  0.0000E+00  0.6000E+01  0.6000E+01
     -8.289  0.0000E+00  0.0000E+00  0.6000E+01  0.6000E+01
     -8.228  0.0000E+00  0.0000E+00  0.6000E+01  0.6000E+01
     -8.167  0.0000E+00  0.0000E+00  0.6000E+01  0.6000E+01
     -8.106  0.0000E+00  0.0000E+00  0.6000E+01  0.6000E+01
     -8.045  0.0000E+00  0.0000E+00  0.6000E+01  0.6000E+01
     -7.984  0.0000E+00  0.0000E+00  0.6000E+01  0.6000E+01
     -7.923  0.0000E+00  0.0000E+00  0.6000E+01  0.6000E+01
     -7.862  0.0000E+00  0.0000E+00  0.6000E+01  0.6000E+01
     -7.801  0.0000E+00  0.0000E+00  0.6000E+01  0.6000E+01
     -7.740  0.0000E+00  0.0000E+00  0.6000E+01  0.6000E+01
     -7.679  0.0000E+00  0.0000E+00  0.6000E+01  0.6000E+01
     -7.618  0.0000E+00  0.0000E+00  0.6000E+01  0.6000E+01
     -7.557  0.0000E+00  0.0000E+00  0.6000E+01  0.6000E+01
     -7.496  0.0000E+00  0.0000E+00  0.6000E+01  0.6000E+01
     -7.436  0.0000E+00  0.0000E+00  0.6000E+01  0.6000E+01
     -7.375  0.0000E+00  0.0000E+00  0.6000E+01  0.6000E+01
     -7.314  0.0000E+00  0.0000E+00  0.6000E+01  0.6000E+01
     -7.253  0.0000E+00  0.0000E+00  0.6000E+01  0.6000E+01
     -7.192  0.0000E+00  0.0000E+00  0.6000E+01  0.6000E+01
     -7.131  0.0000E+00  0.0000E+00  0.6000E+01  0.6000E+01
     -7.070  0.0000E+00  0.0000E+00  0.6000E+01  0.6000E+01
     -7.009  0.0000E+00  0.0000E+00  0.6000E+01  0.6000E+01
     -6.948  0.0000E+00  0.0000E+00  0.6000E+01  0.6000E+01
     -6.887  0.0000E+00  0.0000E+00  0.6000E+01  0.6000E+01
     -6.826  0.0000E+00  0.0000E+00  0.6000E+01  0.6000E+01
     -6.765  0.0000E+00  0.0000E+00  0.6000E+01  0.6000E+01
     -6.704  0.0000E+00  0.0000E+00  0.6000E+01  0.6000E+01
     -6.643  0.0000E+00  0.0000E+00  0.6000E+01  0.6000E+01
     -6.582  0.0000E+00  0.0000E+00  0.6000E+01  0.6000E+01
     -6.521  0.0000E+00  0.0000E+00  0.6000E+01  0.6000E+01
     -6.460  0.0000E+00  0.0000E+00  0.6000E+01  0.6000E+01
     -6.399  0.0000E+00  0.0000E+00  0.6000E+01  0.6000E+01
     -6.338  0.0000E+00  0.0000E+00  0.6000E+01  0.6000E+01
     -6.277  0.0000E+00  0.0000E+00  0.6000E+01  0.6000E+01
     -6.216  0.0000E+00  0.0000E+00  0.6000E+01  0.6000E+01
     -6.155  0.0000E+00  0.0000E+00  0.6000E+01  0.6000E+01
     -6.094  0.0000E+00  0.0000E+00  0.6000E+01  0.6000E+01
     -6.033  0.0000E+00  0.0000E+00  0.6000E+01  0.6000E+01
     -5.972  0.0000E+00  0.0000E+00  0.6000E+01  0.6000E+01
     -5.911  0.0000E+00  0.0000E+00  0.6000E+01  0.6000E+01
     -5.850  0.0000E+00  0.0000E+00  0.6000E+01  0.6000E+01
     -5.789  0.0000E+00  0.0000E+00  0.6000E+01  0.6000E+01
     -5.728  0.0000E+00  0.0000E+00  0.6000E+01  0.6000E+01
     -5.667  0.0000E+00  0.0000E+00  0.6000E+01  0.6000E+01
     -5.606  0.0000E+00  0.0000E+00  0.6000E+01  0.6000E+01
     -5.545  0.0000E+00  0.0000E+00  0.6000E+01  0.6000E+01
     -5.484  0.0000E+00  0.0000E+00  0.6000E+01  0.6000E+01
     -5.423  0.0000E+00  0.0000E+00  0.6000E+01  0.6000E+01
     -5.362  0.0000E+00  0.0000E+00  0.6000E+01  0.6000E+01
     -5.301  0.0000E+00  0.0000E+00  0.6000E+01  0.6000E+01
     -5.240  0.7281E-14  0.7281E-14  0.6000E+01  0.6000E+01
     -5.179  0.2439E-12  0.2439E-12  0.6000E+01  0.6000E+01
     -5.118  0.6702E-11  0.6702E-11  0.6000E+01  0.6000E+01
     -5.057  0.1523E-09  0.1523E-09  0.6000E+01  0.6000E+01
     -4.996  0.2881E-08  0.2881E-08  0.6000E+01  0.6000E+01
     -4.935  0.4533E-07  0.4533E-07  0.6000E+01  0.6000E+01
     -4.874  0.5933E-06  0.5933E-06  0.6000E+01  0.6000E+01
     -4.813  0.6462E-05  0.6462E-05  0.6000E+01  0.6000E+01
     -4.752  0.5856E-04  0.5856E-04  0.6000E+01  0.6000E+01
     -4.691  0.4416E-03  0.4416E-03  0.6000E+01  0.6000E+01
     -4.630  0.2772E-02  0.2772E-02  0.6000E+01  0.6000E+01
     -4.569  0.1448E-01  0.1448E-01  0.6001E+01  0.6001E+01
     -4.508  0.6297E-01  0.6297E-01  0.6005E+01  0.6005E+01
     -4.447  0.2279E+00  0.2279E+00  0.6019E+01  0.6019E+01
     -4.386  0.6868E+00  0.6868E+00  0.6061E+01  0.6061E+01
     -4.325  0.1723E+01  0.1723E+01  0.6166E+01  0.6166E+01
     -4.264  0.3598E+01  0.3598E+01  0.6385E+01  0.6385E+01
     -4.203  0.6258E+01  0.6258E+01  0.6767E+01  0.6767E+01
     -4.142  0.9060E+01  0.9060E+01  0.7320E+01  0.7320E+01
     -4.081  0.1092E+02  0.1092E+02  0.7986E+01  0.7986E+01
     -4.020  0.1096E+02  0.1096E+02  0.8655E+01  0.8655E+01
     -3.959  0.9163E+01  0.9163E+01  0.9213E+01  0.9213E+01
     -3.898  0.6377E+01  0.6377E+01  0.9602E+01  0.9602E+01
     -3.837  0.3695E+01  0.3695E+01  0.9828E+01  0.9828E+01
     -3.776  0.1783E+01  0.1783E+01  0.9937E+01  0.9937E+01
     -3.715  0.7160E+00  0.7160E+00  0.9980E+01  0.9980E+01
     -3.654  0.2394E+00  0.2394E+00  0.9995E+01  0.9995E+01
     -3.593  0.6664E-01  0.6664E-01  0.9999E+01  0.9999E+01
     -3.532  0.1544E-01  0.1544E-01  0.1000E+02  0.1000E+02
     -3.471  0.2978E-02  0.2978E-02  0.1000E+02  0.1000E+02
     -3.410  0.4781E-03  0.4781E-03  0.1000E+02  0.1000E+02
     -3.349  0.6388E-04  0.6388E-04  0.1000E+02  0.1000E+02
     -3.288  0.7103E-05  0.7103E-05  0.1000E+02  0.1000E+02
     -3.227  0.6571E-06  0.6571E-06  0.1000E+02  0.1000E+02
     -3.166  0.5059E-07  0.5059E-07  0.1000E+02  0.1000E+02
     -3.105  0.3240E-08  0.3240E-08  0.1000E+02  0.1000E+02
     -3.044  0.1726E-09  0.1726E-09  0.1000E+02  0.1000E+02
     -2.983  0.7648E-11  0.7648E-11  0.1000E+02  0.1000E+02
     -2.922  0.2840E-12  0.2840E-12  0.1000E+02  0.1000E+02
     -2.861  0.7281E-14  0.7281E-14  0.1000E+02  0.1000E+02
     -2.800  0.0000E+00  0.0000E+00  0.1000E+02  0.1000E+02
     -2.739  0.0000E+00  0.0000E+00  0.1000E+02  0.1000E+02
     -2.678  0.0000E+00  0.0000E+00  0.1000E+02  0.1000E+02
     -2.617  0.0000E+00  0.0000E+00  0.1000E+02  0.1000E+02
     -2.556  0.0000E+00  0.0000E+00  0.1000E+02  0.1000E+02
     -2.495  0.0000E+00  0.0000E+00  0.1000E+02  0.1000E+02
     -2.434  0.0000E+00  0.0000E+00  0.1000E+02  0.1000E+02
     -2.373  0.0000E+00  0.0000E+00  0.1000E+02  0.1000E+02
     -2.312  0.0000E+00  0.0000E+00  0.1000E+02  0.1000E+02
     -2.251  0.0000E+00  0.0000E+00  0.1000E+02  0.1000E+02
     -2.190  0.0000E+00  0.0000E+00  0.1000E+02  0.1000E+02
     -2.129  0.0000E+00  0.0000E+00  0.1000E+02  0.1000E+02
     -2.068  0.0000E+00  0.0000E+00  0.1000E+02  0.1000E+02
     -2.007  0.0000E+00  0.0000E+00  0.1000E+02  0.1000E+02
     -1.946  0.0000E+00  0.0000E+00  0.1000E+02  0.1000E+02
     -1.885  0.0000E+00  0.0000E+00  0.1000E+02  0.1000E+02
     -1.824  0.0000E+00  0.0000E+00  0.1000E+02  0.1000E+02
     -1.763  0.0000E+00  0.0000E+00  0.1000E+02  0.1000E+02
     -1.702  0.0000E+00  0.0000E+00  0.1000E+02  0.1000E+02
     -1.641  0.0000E+00  0.0000E+00  0.1000E+02  0.1000E+02
     -1.580  0.0000E+00  0.0000E+00  0.1000E+02  0.1000E+02
     -1.519  0.0000E+00  0.0000E+00  0.1000E+02  0.1000E+02
     -1.458  0.0000E+00  0.0000E+00  0.1000E+02  0.1000E+02
     -1.397  0.0000E+00  0.0000E+00  0.1000E+02  0.1000E+02
     -1.336  0.0000E+00  0.0000E+00  0.1000E+02  0.1000E+02
     -1.275  0.2366E-13  0.2730E-13  0.1000E+02  0.1000E+02
     -1.214  0.7772E-12  0.7918E-12  0.1000E+02  0.1000E+02
     -1.153  0.2030E-10  0.2078E-10  0.1000E+02  0.1000E+02
     -1.092  0.4426E-09  0.4524E-09  0.1000E+02  0.1000E+02
     -1.031  0.8029E-08  0.8194E-08  0.1000E+02  0.1000E+02
     -0.970  0.1212E-06  0.1235E-06  0.1000E+02  0.1000E+02
     -0.909  0.1522E-05  0.1549E-05  0.1000E+02  0.1000E+02
     -0.848  0.1591E-04  0.1617E-04  0.1000E+02  0.1000E+02
     -0.787  0.1384E-03  0.1405E-03  0.1000E+02  0.1000E+02
     -0.726  0.1002E-02  0.1016E-02  0.1000E+02  0.1000E+02
     -0.665  0.6037E-02  0.6112E-02  0.1000E+02  0.1000E+02
     -0.604  0.3029E-01  0.3062E-01  0.1000E+02  0.1000E+02
     -0.543  0.1265E+00  0.1277E+00  0.1001E+02  0.1001E+02
     -0.482  0.4399E+00  0.4436E+00  0.1004E+02  0.1004E+02
     -0.421  0.1274E+01  0.1283E+01  0.1011E+02  0.1012E+02
     -0.360  0.3071E+01  0.3089E+01  0.1030E+02  0.1030E+02
     -0.299  0.6166E+01  0.6193E+01  0.1068E+02  0.1068E+02
     -0.238  0.1031E+02  0.1034E+02  0.1131E+02  0.1131E+02
     -0.177  0.1435E+02  0.1438E+02  0.1218E+02  0.1219E+02
     -0.116  0.1664E+02  0.1665E+02  0.1320E+02  0.1320E+02
     -0.055  0.1607E+02  0.1605E+02  0.1418E+02  0.1418E+02
      0.006  0.1292E+02  0.1289E+02  0.1497E+02  0.1497E+02
      0.067  0.8662E+01  0.8631E+01  0.1549E+02  0.1550E+02
      0.128  0.4864E+01  0.4841E+01  0.1579E+02  0.1579E+02
      0.189  0.2388E+01  0.2373E+01  0.1594E+02  0.1594E+02
      0.250  0.1336E+01  0.1328E+01  0.1602E+02  0.1602E+02
      0.311  0.1532E+01  0.1526E+01  0.1611E+02  0.1611E+02
      0.372  0.2867E+01  0.2859E+01  0.1629E+02  0.1629E+02
      0.433  0.5209E+01  0.5197E+01  0.1660E+02  0.1660E+02
      0.494  0.8073E+01  0.8061E+01  0.1710E+02  0.1709E+02
      0.555  0.1054E+02  0.1053E+02  0.1774E+02  0.1774E+02
      0.616  0.1171E+02  0.1171E+02  0.1845E+02  0.1845E+02
      0.677  0.1147E+02  0.1148E+02  0.1915E+02  0.1915E+02
      0.738  0.1066E+02  0.1068E+02  0.1980E+02  0.1980E+02
      0.799  0.1038E+02  0.1041E+02  0.2044E+02  0.2044E+02
      0.860  0.1099E+02  0.1102E+02  0.2111E+02  0.2111E+02
      0.921  0.1174E+02  0.1176E+02  0.2182E+02  0.2183E+02
      0.982  0.1149E+02  0.1149E+02  0.2252E+02  0.2253E+02
      1.043  0.9730E+01  0.9721E+01  0.2312E+02  0.2312E+02
      1.104  0.6956E+01  0.6944E+01  0.2354E+02  0.2354E+02
      1.165  0.4162E+01  0.4151E+01  0.2380E+02  0.2380E+02
      1.226  0.2077E+01  0.2070E+01  0.2392E+02  0.2392E+02
      1.287  0.8634E+00  0.8598E+00  0.2397E+02  0.2398E+02
      1.348  0.2989E+00  0.2974E+00  0.2399E+02  0.2399E+02
      1.409  0.8614E-01  0.8564E-01  0.2400E+02  0.2400E+02
      1.470  0.2067E-01  0.2053E-01  0.2400E+02  0.2400E+02
      1.531  0.4127E-02  0.4097E-02  0.2400E+02  0.2400E+02
      1.592  0.6860E-03  0.6804E-03  0.2400E+02  0.2400E+02
      1.653  0.9490E-04  0.9405E-04  0.2400E+02  0.2400E+02
      1.714  0.1093E-04  0.1082E-04  0.2400E+02  0.2400E+02
      1.775  0.1047E-05  0.1036E-05  0.2400E+02  0.2400E+02
      1.836  0.8343E-07  0.8249E-07  0.2400E+02  0.2400E+02
      1.897  0.5533E-08  0.5466E-08  0.2400E+02  0.2400E+02
      1.958  0.3053E-09  0.3014E-09  0.2400E+02  0.2400E+02
      2.019  0.1401E-10  0.1382E-10  0.2400E+02  0.2400E+02
      2.080  0.5388E-12  0.5315E-12  0.2400E+02  0.2400E+02
      2.141  0.1456E-13  0.1456E-13  0.2400E+02  0.2400E+02
      2.202  0.0000E+00  0.0000E+00  0.2400E+02  0.2400E+02
      2.263  0.0000E+00  0.0000E+00  0.2400E+02  0.2400E+02
      2.324  0.0000E+00  0.0000E+00  0.2400E+02  0.2400E+02
      2.385  0.0000E+00  0.0000E+00  0.2400E+02  0.2400E+02
      2.446  0.0000E+00  0.0000E+00  0.2400E+02  0.2400E+02
      2.507  0.0000E+00  0.0000E+00  0.2400E+02  0.2400E+02
      2.568  0.0000E+00  0.0000E+00  0.2400E+02  0.2400E+02
      2.629  0.0000E+00  0.0000E+00  0.2400E+02  0.2400E+02
      2.690  0.0000E+00  0.0000E+00  0.2400E+02  0.2400E+02
      2.751  0.0000E+00  0.0000E+00  0.2400E+02  0.2400E+02
      2.812  0.0000E+00  0.0000E+00  0.2400E+02  0.2400E+02
      2.873  0.0000E+00  0.0000E+00  0.2400E+02  0.2400E+02
      2.934  0.0000E+00  0.0000E+00  0.2400E+02  0.2400E+02
