    8    8    1    2
  0.2250000E+03  0.1500000E-08  0.1500000E-08  0.8000000E-09  0.5000000E-15
  1.000000000000000E-004
  CAR 
 unknown system                          
      8      1     12
 
  0.0000000E+00  0.0000000E+00  0.0000000E+00  0.1000000E+01
    1      -13.364811    -13.364811   1.000000   1.000000
    2      -11.039423    -11.039423   1.000000   1.000000
    3      -11.039423    -11.039423   1.000000   1.000000
    4       -4.079537     -4.079537   0.500007   0.500007
    5       -4.079532     -4.079533   0.499993   0.499993
    6       -0.131014     -0.131470   0.000000   0.000000
    7       -0.131014     -0.131470   0.000000   0.000000
    8       -0.121376     -0.121783   0.000000   0.000000
    9        0.567036      0.567017   0.000000   0.000000
   10        0.591923      0.592476   0.000000   0.000000
   11        0.933595      0.933331   0.000000   0.000000
   12        0.933595      0.933331   0.000000   0.000000
