       N       E                     dE             d eps       ncg     rms          rms(c)
DAV:   1     0.410574524250E+01    0.41057E+01   -0.12763E+03    64   0.190E+02
DAV:   2    -0.194457660350E+02   -0.23552E+02   -0.22939E+02    72   0.606E+01
DAV:   3    -0.220765628851E+02   -0.26308E+01   -0.25214E+01    60   0.180E+01
DAV:   4    -0.222143979918E+02   -0.13784E+00   -0.27484E-01    52   0.226E+00
DAV:   5    -0.222170194301E+02   -0.26214E-02   -0.26069E-02    64   0.426E-01    0.507E+00
DAV:   6    -0.216078539813E+02    0.60917E+00   -0.17267E-01    48   0.171E+00    0.301E+00
DAV:   7    -0.211386780582E+02    0.46918E+00   -0.54180E-01    56   0.301E+00    0.364E-01
DAV:   8    -0.211315999622E+02    0.70781E-02   -0.81010E-03    48   0.511E-01    0.139E-01
DAV:   9    -0.211285061142E+02    0.30938E-02   -0.24253E-03    56   0.206E-01    0.600E-02
DAV:  10    -0.211338447658E+02   -0.53387E-02   -0.11307E-03    48   0.157E-01    0.353E-02
DAV:  11    -0.211355811041E+02   -0.17363E-02   -0.10547E-04    52   0.515E-02    0.204E-02
DAV:  12    -0.211409151196E+02   -0.53340E-02   -0.10179E-03    56   0.128E-01    0.113E-02
DAV:  13    -0.211412430523E+02   -0.32793E-03   -0.16077E-05    48   0.237E-02    0.682E-03
DAV:  14    -0.211416941964E+02   -0.45114E-03   -0.42822E-06    48   0.153E-02    0.418E-03
DAV:  15    -0.211421482480E+02   -0.45405E-03   -0.14226E-05    48   0.183E-02    0.167E-03
DAV:  16    -0.211421858690E+02   -0.37621E-04   -0.21583E-07    56   0.367E-03    0.105E-03
DAV:  17    -0.211422468786E+02   -0.61010E-04   -0.97998E-07    48   0.482E-03    0.486E-04
DAV:  18    -0.211422506560E+02   -0.37774E-05   -0.40188E-08    48   0.126E-03    0.278E-04
DAV:  19    -0.211422584064E+02   -0.77504E-05   -0.51744E-08    48   0.141E-03    0.241E-04
DAV:  20    -0.211422593223E+02   -0.91593E-06   -0.81101E-09    48   0.664E-04
   1 F= -.21142259E+02 E0= -.21029421E+02  d E =-.225676E+00  mag=    -0.0000
