 vasp.5.4.4.18Apr17-6-g9f103f2a35 (build Aug 24 2024 05:40:03) complex          
  
 executed on           IFC22_IMPI date 2024.11.22  21:39:19
 running on    4 total cores
 distrk:  each k-point on    4 cores,    1 groups
 distr:  one band on NCORES_PER_BAND=   1 cores,    4 groups


--------------------------------------------------------------------------------------------------------


 INCAR:
 POTCAR:    PAW_PBE H 15Jun2001                   
 POTCAR:    PAW_PBE H 15Jun2001                   
   VRHFIN =H: ultrasoft test                                                    
   LEXCH  = PE                                                                  
   EATOM  =    12.4884 eV,    0.9179 Ry                                         
                                                                                
   TITEL  = PAW_PBE H 15Jun2001                                                 
   LULTRA =        F    use ultrasoft PP ?                                      
   IUNSCR =        0    unscreen: 0-lin 1-nonlin 2-no                           
   RPACOR =    0.000    partial core radius                                     
   POMASS =    1.000; ZVAL   =    1.000    mass and valenz                      
   RCORE  =    1.100    outmost cutoff radius                                   
   RWIGS  =    0.700; RWIGS  =    0.370    wigner-seitz radius (au A)           
   ENMAX  =  250.000; ENMIN  =  200.000 eV                                      
   RCLOC  =    0.701    cutoff for local pot                                    
   LCOR   =        T    correct aug charges                                     
   LPAW   =        T    paw PP                                                  
   EAUG   =  400.000                                                            
   RMAX   =    1.123    core radius for proj-oper                               
   RAUG   =    1.200    factor for augmentation sphere                          
   RDEP   =    1.112    radius for radial grids                                 
   RDEPT  =    0.926    core radius for aug-charge                              
                                                                                
   Atomic configuration                                                         
    2 entries                                                                   
     n  l   j            E        occ.                                          
     1  0  0.50        -6.4927   1.0000                                         
     2  1  0.50        -3.4015   0.0000                                         
   Description                                                                  
     l       E           TYP  RCUT    TYP  RCUT                                 
     0     -6.4927494     23  1.100                                             
     0      6.8029130     23  1.100                                             
     1     -4.0817478     23  1.100                                             
  local pseudopotential read in
  atomic valenz-charges read in
  non local Contribution for L=           0  read in
    real space projection operators read in
  non local Contribution for L=           0  read in
    real space projection operators read in
  non local Contribution for L=           1  read in
    real space projection operators read in
    PAW grid and wavefunctions read in
 
   number of l-projection  operators is LMAX  =           3
   number of lm-projection operators is LMMAX =           5
 
  PAW_PBE H 15Jun2001                   :
 energy of atom  1       EATOM=  -12.4884
 kinetic energy error for atom=    0.0426 (will be added to EATOM!!)
 
 
 POSCAR: H8                                      
  positions in direct lattice
  No initial velocities read in
 exchange correlation table for  LEXCH =        8
   RHO(1)=    0.500       N(1)  =     2000
   RHO(2)=  100.500       N(2)  =     4000
 


--------------------------------------------------------------------------------------------------------


 ion  position               nearest neighbor table
   1  0.000  0.000  0.000-
   2  0.000  0.000  0.125-
   3  0.000  0.000  0.250-
   4  0.000  0.000  0.375-
   5  0.000  0.000  0.500-
   6  0.000  0.000  0.625-
   7  0.000  0.000  0.750-
   8  0.000  0.000  0.875-
 
  LATTYP: Found a simple tetragonal cell.
 ALAT       =    15.0000000000
 C/A-ratio  =     0.5333333333
  
  Lattice vectors:
  
 A1 = (  15.0000000000,   0.0000000000,   0.0000000000)
 A2 = (   0.0000000000,  15.0000000000,   0.0000000000)
 A3 = (   0.0000000000,   0.0000000000,   8.0000000000)


Analysis of symmetry for initial positions (statically):
=====================================================================
 Subroutine PRICEL returns following result:
 
  LATTYP: Found a simple tetragonal cell.
 ALAT       =    15.0000000000
 C/A-ratio  =     0.0666666667
  
  Lattice vectors:
  
 A1 = (  15.0000000000,   0.0000000000,   0.0000000000)
 A2 = (   0.0000000000,  15.0000000000,   0.0000000000)
 A3 = (   0.0000000000,   0.0000000000,   1.0000000000)
 
   8 primitive cells build up your supercell.
 

 Routine SETGRP: Setting up the symmetry group for a 
 simple tetragonal supercell.


 Subroutine GETGRP returns: Found 16 space group operations
 (whereof 16 operations were pure point group operations)
 out of a pool of 16 trial point group operations.


The static configuration has the point symmetry D_4h.


Analysis of symmetry for dynamics (positions and initial velocities):
=====================================================================
 Subroutine PRICEL returns following result:
 
  LATTYP: Found a simple tetragonal cell.
 ALAT       =    15.0000000000
 C/A-ratio  =     0.0666666667
  
  Lattice vectors:
  
 A1 = (  15.0000000000,   0.0000000000,   0.0000000000)
 A2 = (   0.0000000000,  15.0000000000,   0.0000000000)
 A3 = (   0.0000000000,   0.0000000000,   1.0000000000)
 
   8 primitive cells build up your supercell.
 

 Routine SETGRP: Setting up the symmetry group for a 
 simple tetragonal supercell.


 Subroutine GETGRP returns: Found 16 space group operations
 (whereof 16 operations were pure point group operations)
 out of a pool of 16 trial point group operations.


The dynamic configuration has the point symmetry D_4h.


Analysis of structural, dynamic, and magnetic symmetry:
=====================================================================
 Subroutine PRICEL returns following result:
 
  LATTYP: Found a simple tetragonal cell.
 ALAT       =    15.0000000000
 C/A-ratio  =     0.0666666667
  
  Lattice vectors:
  
 A1 = (  15.0000000000,   0.0000000000,   0.0000000000)
 A2 = (   0.0000000000,  15.0000000000,   0.0000000000)
 A3 = (   0.0000000000,   0.0000000000,   1.0000000000)
 
   8 primitive cells build up your supercell.
 

 Routine SETGRP: Setting up the symmetry group for a 
 simple tetragonal supercell.


 Subroutine GETGRP returns: Found 16 space group operations
 (whereof 16 operations were pure point group operations)
 out of a pool of 16 trial point group operations.


The magnetic configuration has the point symmetry D_4h.


 Subroutine INISYM returns: Found 16 space group operations
 (whereof 16 operations are pure point group operations),
 and found     8 'primitive' translations

 
 
 KPOINTS: Automatic kpoint scheme                 

Automatic generation of k-mesh.
Space group operators:
 irot       det(A)        alpha          n_x          n_y          n_z        tau_x        tau_y        tau_z
    1     1.000000     0.000000     1.000000     0.000000     0.000000     0.000000     0.000000     0.000000
    2    -1.000000     0.000000     1.000000     0.000000     0.000000     0.000000     0.000000     0.000000
    3     1.000000    90.000000     0.000000     0.000000    -1.000000     0.000000     0.000000     0.000000
    4    -1.000000    90.000000     0.000000     0.000000    -1.000000     0.000000     0.000000     0.000000
    5     1.000000   180.000000    -0.000000    -0.000000     1.000000     0.000000     0.000000     0.000000
    6    -1.000000   180.000000    -0.000000    -0.000000     1.000000     0.000000     0.000000     0.000000
    7     1.000000    90.000000    -0.000000    -0.000000     1.000000     0.000000     0.000000     0.000000
    8    -1.000000    90.000000    -0.000000    -0.000000     1.000000     0.000000     0.000000     0.000000
    9     1.000000   180.000000     0.000000     1.000000     0.000000     0.000000     0.000000     0.000000
   10    -1.000000   180.000000     0.000000     1.000000     0.000000     0.000000     0.000000     0.000000
   11     1.000000   180.000000     0.707107     0.707107     0.000000     0.000000     0.000000     0.000000
   12    -1.000000   180.000000     0.707107     0.707107     0.000000     0.000000     0.000000     0.000000
   13     1.000000   180.000000     1.000000    -0.000000     0.000000     0.000000     0.000000     0.000000
   14    -1.000000   180.000000     1.000000    -0.000000     0.000000     0.000000     0.000000     0.000000
   15     1.000000   180.000000     0.707107    -0.707107     0.000000     0.000000     0.000000     0.000000
   16    -1.000000   180.000000     0.707107    -0.707107     0.000000     0.000000     0.000000     0.000000
 
 Subroutine IBZKPT returns following result:
 ===========================================
 
 Found      1 irreducible k-points:
 
 Following reciprocal coordinates:
            Coordinates               Weight
  0.000000  0.000000  0.000000      1.000000
 
 Following cartesian coordinates:
            Coordinates               Weight
  0.000000  0.000000  0.000000      1.000000
 


--------------------------------------------------------------------------------------------------------




 Dimension of arrays:
   k-points           NKPTS =      1   k-points in BZ     NKDIM =      1   number of bands    NBANDS=     12
   number of dos      NEDOS =    301   number of ions     NIONS =      8
   non local maximal  LDIM  =      3   non local SUM 2l+1 LMDIM =      5
   total plane-waves  NPLWV = 147456
   max r-space proj   IRMAX =      1   max aug-charges    IRDMAX=    598
   dimension x,y,z NGX =    64 NGY =   64 NGZ =   36
   dimension x,y,z NGXF=   128 NGYF=  128 NGZF=   72
   support grid    NGXF=   128 NGYF=  128 NGZF=   72
   ions per type =               8
   NGX,Y,Z   is equivalent  to a cutoff of   7.09,  7.09,  7.48 a.u.
   NGXF,Y,Z  is equivalent  to a cutoff of  14.19, 14.19, 14.96 a.u.

 SYSTEM =  unknown system                          
 POSCAR =  H8                                      

 Startparameter for this run:
   NWRITE =      2    write-flag & timer
   PREC   = normal    normal or accurate (medium, high low for compatibility)
   ISTART =      0    job   : 0-new  1-cont  2-samecut
   ICHARG =      2    charge: 1-file 2-atom 10-const
   ISPIN  =      2    spin polarized calculation?
   LNONCOLLINEAR =      F non collinear calculations
   LSORBIT =      F    spin-orbit coupling
   INIWAV =      1    electr: 0-lowe 1-rand  2-diag
   LASPH  =      F    aspherical Exc in radial PAW
   METAGGA=      F    non-selfconsistent MetaGGA calc.

 Electronic Relaxation 1
   ENCUT  =  300.0 eV  22.05 Ry    4.70 a.u.  21.18 21.18 11.30*2*pi/ulx,y,z
   ENINI  =  300.0     initial cutoff
   ENAUG  =  400.0 eV  augmentation charge cutoff
   NELM   =    100;   NELMIN=  2; NELMDL= -5     # of ELM steps 
   EDIFF  = 0.1E-05   stopping-criterion for ELM
   LREAL  =      F    real-space projection
   NLSPLINE    = F    spline interpolate recip. space projectors
   LCOMPAT=      F    compatible to vasp.4.4
   GGA_COMPAT  = T    GGA compatible to vasp.4.4-vasp.4.6
   LMAXPAW     = -100 max onsite density
   LMAXMIX     =    2 max onsite mixed and CHGCAR
   VOSKOWN=      0    Vosko Wilk Nusair interpolation
   ROPT   =    0.00000
 Ionic relaxation
   EDIFFG = 0.1E-04   stopping-criterion for IOM
   NSW    =      0    number of steps for IOM
   NBLOCK =      1;   KBLOCK =      1    inner block; outer block 
   IBRION =     -1    ionic relax: 0-MD 1-quasi-New 2-CG
   NFREE  =      0    steps in history (QN), initial steepest desc. (CG)
   ISIF   =      2    stress and relaxation
   IWAVPR =     10    prediction:  0-non 1-charg 2-wave 3-comb
   ISYM   =      2    0-nonsym 1-usesym 2-fastsym
   LCORR  =      T    Harris-Foulkes like correction to forces

   POTIM  = 0.5000    time-step for ionic-motion
   TEIN   =    0.0    initial temperature
   TEBEG  =    0.0;   TEEND  =   0.0 temperature during run
   SMASS  =  -3.00    Nose mass-parameter (am)
   estimated Nose-frequenzy (Omega)   =  0.10E-29 period in steps =****** mass=  -0.514E-26a.u.
   SCALEE = 1.0000    scale energy and forces
   NPACO  =    256;   APACO  = 16.0  distance and # of slots for P.C.
   PSTRESS=    0.0 pullay stress

  Mass of Ions in am
   POMASS =   1.00
  Ionic Valenz
   ZVAL   =   1.00
  Atomic Wigner-Seitz radii
   RWIGS  =  -1.00
  virtual crystal weights 
   VCA    =   1.00
   NELECT =       8.0000    total number of electrons
   NUPDOWN=       0.0000    fix difference up-down

 DOS related values:
   EMIN   =  10.00;   EMAX   =-10.00  energy-range for DOS
   EFERMI =   0.00
   ISMEAR =     0;   SIGMA  =   0.20  broadening in eV -4-tet -1-fermi 0-gaus

 Electronic relaxation 2 (details)
   IALGO  =     38    algorithm
   LDIAG  =      T    sub-space diagonalisation (order eigenvalues)
   LSUBROT=      F    optimize rotation matrix (better conditioning)
   TURBO    =      0    0=normal 1=particle mesh
   IRESTART =      0    0=no restart 2=restart with 2 vectors
   NREBOOT  =      0    no. of reboots
   NMIN     =      0    reboot dimension
   EREF     =   0.00    reference energy to select bands
   IMIX   =      4    mixing-type and parameters
     AMIX     =   0.40;   BMIX     =  1.00
     AMIX_MAG =   1.60;   BMIX_MAG =  1.00
     AMIN     =   0.10
     WC   =   100.;   INIMIX=   1;  MIXPRE=   1;  MAXMIX= -45

 Intra band minimization:
   WEIMIN = 0.0000     energy-eigenvalue tresh-hold
   EBREAK =  0.21E-07  absolut break condition
   DEPER  =   0.30     relativ break condition  

   TIME   =   0.40     timestep for ELM

  volume/ion in A,a.u.               =     225.00      1518.37
  Fermi-wavevector in a.u.,A,eV,Ry     =   0.269162  0.508643  0.985718  0.072448
  Thomas-Fermi vector in A             =   1.106269
 
 Write flags
   LWAVE        =      F    write WAVECAR
   LDOWNSAMPLE  =      F    k-point downsampling of WAVECAR
   LCHARG       =      F    write CHGCAR
   LVTOT        =      F    write LOCPOT, total local potential
   LVHAR        =      F    write LOCPOT, Hartree potential only
   LELF         =      F    write electronic localiz. function (ELF)
   LORBIT       =      0    0 simple, 1 ext, 2 COOP (PROOUT), +10 PAW based schemes


 Dipole corrections
   LMONO  =      F    monopole corrections only (constant potential shift)
   LDIPOL =      F    correct potential (dipole corrections)
   IDIPOL =      0    1-x, 2-y, 3-z, 4-all directions 
   EPSILON=  1.0000000 bulk dielectric constant

 Exchange correlation treatment:
   GGA     =    --    GGA type
   LEXCH   =     8    internal setting for exchange type
   VOSKOWN=      0    Vosko Wilk Nusair interpolation
   LHFCALC =     F    Hartree Fock is set to
   LHFONE  =     F    Hartree Fock one center treatment
   AEXX    =    0.0000 exact exchange contribution

 Linear response parameters
   LEPSILON=     F    determine dielectric tensor
   LRPA    =     F    only Hartree local field effects (RPA)
   LNABLA  =     F    use nabla operator in PAW spheres
   LVEL    =     F    velocity operator in full k-point grid
   LINTERFAST=   F  fast interpolation
   KINTER  =     0    interpolate to denser k-point grid
   CSHIFT  =0.1000    complex shift for real part using Kramers Kronig
   OMEGAMAX=  -1.0    maximum frequency
   DEG_THRESHOLD= 0.2000000E-02 threshold for treating states as degnerate
   RTIME   =   -0.100 relaxation time in fs
  (WPLASMAI=    0.000 imaginary part of plasma frequency in eV, 0.658/RTIME)
   DFIELD  = 0.0000000 0.0000000 0.0000000 field for delta impulse in time
 
 Orbital magnetization related:
   ORBITALMAG=     F  switch on orbital magnetization
   LCHIMAG   =     F  perturbation theory with respect to B field
   DQ        =  0.001000  dq finite difference perturbation B field
   LLRAUG    =     F  two centre corrections for induced B field



--------------------------------------------------------------------------------------------------------


 Static calculation
 charge density and potential will be updated during run
 spin polarized calculation
 Variant of blocked Davidson
 Davidson routine will perform the subspace rotation
 perform sub-space diagonalisation
    after iterative eigenvector-optimisation
 modified Broyden-mixing scheme, WC =      100.0
 initial mixing is a Kerker type mixing with AMIX =  0.4000 and BMIX =      1.0000
 Hartree-type preconditioning will be used
 using additional bands            8
 reciprocal scheme for non local part
 calculate Harris-corrections to forces 
   (improved forces if not selfconsistent)
 use gradient corrections 
 use of overlap-Matrix (Vanderbilt PP)
 Gauss-broadening in eV      SIGMA  =   0.20


--------------------------------------------------------------------------------------------------------


  energy-cutoff  :      300.00
  volume of cell :     1800.00
      direct lattice vectors                 reciprocal lattice vectors
    15.000000000  0.000000000  0.000000000     0.066666667 -0.000000000  0.000000000
     0.000000000 15.000000000  0.000000000     0.000000000  0.066666667  0.000000000
     0.000000000  0.000000000  8.000000000    -0.000000000 -0.000000000  0.125000000

  length of vectors
    15.000000000 15.000000000  8.000000000     0.066666667  0.066666667  0.125000000


 
 k-points in units of 2pi/SCALE and weight: Automatic kpoint scheme                 
   0.00000000  0.00000000  0.00000000       1.000
 
 k-points in reciprocal lattice and weights: Automatic kpoint scheme                 
   0.00000000  0.00000000  0.00000000       1.000
 
 position of ions in fractional coordinates (direct lattice) 
   0.00000000  0.00000000  0.00000000
   0.00000000  0.00000000  0.12500000
   0.00000000  0.00000000  0.25000000
   0.00000000  0.00000000  0.37500000
   0.00000000  0.00000000  0.50000000
   0.00000000  0.00000000  0.62500000
   0.00000000  0.00000000  0.75000000
   0.00000000  0.00000000  0.87500000
 
 position of ions in cartesian coordinates  (Angst):
   0.00000000  0.00000000  0.00000000
   0.00000000  0.00000000  1.00000000
   0.00000000  0.00000000  2.00000000
   0.00000000  0.00000000  3.00000000
   0.00000000  0.00000000  4.00000000
   0.00000000  0.00000000  5.00000000
   0.00000000  0.00000000  6.00000000
   0.00000000  0.00000000  7.00000000
 


--------------------------------------------------------------------------------------------------------


 k-point  1 :   0.0000 0.0000 0.0000  plane waves:   21171

 maximum and minimum number of plane-waves per node :     21171    21171

 maximum number of plane-waves:     21171
 maximum index in each direction: 
   IXMAX=   21   IYMAX=   21   IZMAX=   11
   IXMIN=  -21   IYMIN=  -21   IZMIN=  -11


 serial   3D FFT for wavefunctions
 parallel 3D FFT for charge:
    minimum data exchange during FFTs selected (reduces bandwidth)


 total amount of memory used by VASP MPI-rank0    80013. kBytes
=======================================================================

   base      :      30000. kBytes
   nonl-proj :       3556. kBytes
   fftplans  :      10783. kBytes
   grid      :      33619. kBytes
   one-center:         19. kBytes
   wavefun   :       2036. kBytes
 
     INWAV:  cpu time    0.0000: real time    0.0000
 Broyden mixing: mesh for mixing (old mesh)
   NGX = 43   NGY = 43   NGZ = 23
  (NGX  =128   NGY  =128   NGZ  = 72)
  gives a total of  42527 points

 initial charge density was supplied:
 charge density of overlapping atoms calculated
 number of electron       8.0000000 magnetization       0.0000000
 keeping initial charge density in first step


--------------------------------------------------------------------------------------------------------


 Maximum index for augmentation-charges           91 (set IRDMAX)


--------------------------------------------------------------------------------------------------------


 First call to EWALD:  gamma=   0.146
 Maximum number of real-space cells 2x 2x 4
 Maximum number of reciprocal cells 3x 3x 2

    FEWALD:  cpu time    0.0016: real time    0.0016


--------------------------------------- Iteration      1(   1)  ---------------------------------------


    POTLOK:  cpu time    0.4092: real time    0.4092
    SETDIJ:  cpu time    0.0098: real time    0.0098
     EDDAV:  cpu time    0.2658: real time    0.2658
       DOS:  cpu time    0.0003: real time    0.0003
    --------------------------------------------
      LOOP:  cpu time    0.6851: real time    0.6850

 eigenvalue-minimisations  :    64
 total energy-change (2. order) : 0.4105745E+01  (-0.1276287E+03)
 number of electron       8.0000000 magnetization       0.0000000
 augmentation part        8.0000000 magnetization       0.0000000

 Free energy of the ion-electron system (eV)
  ---------------------------------------------------
  alpha Z        PSCENC =         0.08661929
  Ewald energy   TEWEN  =       147.63649569
  -Hartree energ DENC   =      -186.68144460
  -exchange      EXHF   =         0.00000000
  -V(xc)+E(xc)   XCENC  =        18.72137389
  PAW double counting   =        17.07221949      -17.14324176
  entropy T*S    EENTRO =        -0.04264938
  eigenvalues    EBANDS =       -75.10983045
  atomic energy  EATOM  =        99.56620307
  Solvation  Ediel_sol  =         0.00000000
  ---------------------------------------------------
  free energy    TOTEN  =         4.10574524 eV

  energy without entropy =        4.14839462  energy(sigma->0) =        4.12706993


--------------------------------------------------------------------------------------------------------




--------------------------------------- Iteration      1(   2)  ---------------------------------------


     EDDAV:  cpu time    0.2844: real time    0.2844
       DOS:  cpu time    0.0002: real time    0.0002
    --------------------------------------------
      LOOP:  cpu time    0.2847: real time    0.2846

 eigenvalue-minimisations  :    72
 total energy-change (2. order) :-0.2355151E+02  (-0.2293921E+02)
 number of electron       8.0000000 magnetization       0.0000000
 augmentation part        8.0000000 magnetization       0.0000000

 Free energy of the ion-electron system (eV)
  ---------------------------------------------------
  alpha Z        PSCENC =         0.08661929
  Ewald energy   TEWEN  =       147.63649569
  -Hartree energ DENC   =      -186.68144460
  -exchange      EXHF   =         0.00000000
  -V(xc)+E(xc)   XCENC  =        18.72137389
  PAW double counting   =        17.07221949      -17.14324176
  entropy T*S    EENTRO =        -0.00231293
  eigenvalues    EBANDS =       -98.70167817
  atomic energy  EATOM  =        99.56620307
  Solvation  Ediel_sol  =         0.00000000
  ---------------------------------------------------
  free energy    TOTEN  =       -19.44576604 eV

  energy without entropy =      -19.44345311  energy(sigma->0) =      -19.44460957


--------------------------------------------------------------------------------------------------------




--------------------------------------- Iteration      1(   3)  ---------------------------------------


     EDDAV:  cpu time    0.2461: real time    0.2460
       DOS:  cpu time    0.0003: real time    0.0003
    --------------------------------------------
      LOOP:  cpu time    0.2463: real time    0.2463

 eigenvalue-minimisations  :    60
 total energy-change (2. order) :-0.2630797E+01  (-0.2521424E+01)
 number of electron       8.0000000 magnetization       0.0000000
 augmentation part        8.0000000 magnetization       0.0000000

 Free energy of the ion-electron system (eV)
  ---------------------------------------------------
  alpha Z        PSCENC =         0.08661929
  Ewald energy   TEWEN  =       147.63649569
  -Hartree energ DENC   =      -186.68144460
  -exchange      EXHF   =         0.00000000
  -V(xc)+E(xc)   XCENC  =        18.72137389
  PAW double counting   =        17.07221949      -17.14324176
  entropy T*S    EENTRO =        -0.11305139
  eigenvalues    EBANDS =      -101.22173656
  atomic energy  EATOM  =        99.56620307
  Solvation  Ediel_sol  =         0.00000000
  ---------------------------------------------------
  free energy    TOTEN  =       -22.07656289 eV

  energy without entropy =      -21.96351149  energy(sigma->0) =      -22.02003719


--------------------------------------------------------------------------------------------------------




--------------------------------------- Iteration      1(   4)  ---------------------------------------


     EDDAV:  cpu time    0.2250: real time    0.2250
       DOS:  cpu time    0.0003: real time    0.0003
    --------------------------------------------
      LOOP:  cpu time    0.2252: real time    0.2253

 eigenvalue-minimisations  :    52
 total energy-change (2. order) :-0.1378351E+00  (-0.2748407E-01)
 number of electron       8.0000000 magnetization       0.0000000
 augmentation part        8.0000000 magnetization       0.0000000

 Free energy of the ion-electron system (eV)
  ---------------------------------------------------
  alpha Z        PSCENC =         0.08661929
  Ewald energy   TEWEN  =       147.63649569
  -Hartree energ DENC   =      -186.68144460
  -exchange      EXHF   =         0.00000000
  -V(xc)+E(xc)   XCENC  =        18.72137389
  PAW double counting   =        17.07221949      -17.14324176
  entropy T*S    EENTRO =        -0.22566101
  eigenvalues    EBANDS =      -101.24696205
  atomic energy  EATOM  =        99.56620307
  Solvation  Ediel_sol  =         0.00000000
  ---------------------------------------------------
  free energy    TOTEN  =       -22.21439799 eV

  energy without entropy =      -21.98873698  energy(sigma->0) =      -22.10156749


--------------------------------------------------------------------------------------------------------




--------------------------------------- Iteration      1(   5)  ---------------------------------------


     EDDAV:  cpu time    0.2579: real time    0.2579
       DOS:  cpu time    0.0003: real time    0.0003
    CHARGE:  cpu time    0.1139: real time    0.1139
    MIXING:  cpu time    0.0079: real time    0.0080
    --------------------------------------------
      LOOP:  cpu time    0.3801: real time    0.3800

 eigenvalue-minimisations  :    64
 total energy-change (2. order) :-0.2621438E-02  (-0.2606885E-02)
 number of electron       8.0000031 magnetization       0.0000000
 augmentation part        0.1464182 magnetization       0.0000096

 Broyden mixing:
  rms(total) = 0.50725E+00    rms(broyden)= 0.50717E+00
  rms(prec ) = 0.58901E+00
  weight for this iteration     100.00

 Free energy of the ion-electron system (eV)
  ---------------------------------------------------
  alpha Z        PSCENC =         0.08661929
  Ewald energy   TEWEN  =       147.63649569
  -Hartree energ DENC   =      -186.68144460
  -exchange      EXHF   =         0.00000000
  -V(xc)+E(xc)   XCENC  =        18.72137389
  PAW double counting   =        17.07221949      -17.14324176
  entropy T*S    EENTRO =        -0.22567583
  eigenvalues    EBANDS =      -101.24956867
  atomic energy  EATOM  =        99.56620307
  Solvation  Ediel_sol  =         0.00000000
  ---------------------------------------------------
  free energy    TOTEN  =       -22.21701943 eV

  energy without entropy =      -21.99134360  energy(sigma->0) =      -22.10418151


--------------------------------------------------------------------------------------------------------




--------------------------------------- Iteration      1(   6)  ---------------------------------------


    POTLOK:  cpu time    0.4178: real time    0.4178
    SETDIJ:  cpu time    0.0108: real time    0.0108
     EDDAV:  cpu time    0.2142: real time    0.2141
       DOS:  cpu time    0.0003: real time    0.0003
    CHARGE:  cpu time    0.1130: real time    0.1130
    MIXING:  cpu time    0.0086: real time    0.0086
    --------------------------------------------
      LOOP:  cpu time    0.7648: real time    0.7646

 eigenvalue-minimisations  :    48
 total energy-change (2. order) : 0.6091654E+00  (-0.1726695E-01)
 number of electron       8.0000030 magnetization      -0.0000000
 augmentation part        0.1435525 magnetization       0.0000022

 Broyden mixing:
  rms(total) = 0.30058E+00    rms(broyden)= 0.30058E+00
  rms(prec ) = 0.35456E+00
  weight for this iteration     100.00

 eigenvalues of (default mixing * dielectric matrix)
  average eigenvalue GAMMA=   2.4156
  2.4156

 Free energy of the ion-electron system (eV)
  ---------------------------------------------------
  alpha Z        PSCENC =         0.08661929
  Ewald energy   TEWEN  =       147.63649569
  -Hartree energ DENC   =      -193.72050539
  -exchange      EXHF   =         0.00000000
  -V(xc)+E(xc)   XCENC  =        19.51506127
  PAW double counting   =        37.09780165      -37.19783720
  entropy T*S    EENTRO =        -0.22567583
  eigenvalues    EBANDS =       -94.36601652
  atomic energy  EATOM  =        99.56620307
  Solvation  Ediel_sol  =         0.00000000
  ---------------------------------------------------
  free energy    TOTEN  =       -21.60785398 eV

  energy without entropy =      -21.38217815  energy(sigma->0) =      -21.49501606


--------------------------------------------------------------------------------------------------------




--------------------------------------- Iteration      1(   7)  ---------------------------------------


    POTLOK:  cpu time    0.4165: real time    0.4163
    SETDIJ:  cpu time    0.0106: real time    0.0106
     EDDAV:  cpu time    0.2319: real time    0.2318
       DOS:  cpu time    0.0003: real time    0.0003
    CHARGE:  cpu time    0.1105: real time    0.1104
    MIXING:  cpu time    0.0090: real time    0.0090
    --------------------------------------------
      LOOP:  cpu time    0.7787: real time    0.7784

 eigenvalue-minimisations  :    56
 total energy-change (2. order) : 0.4691759E+00  (-0.5418008E-01)
 number of electron       8.0000029 magnetization      -0.0000000
 augmentation part        0.1384591 magnetization      -0.0000022

 Broyden mixing:
  rms(total) = 0.36363E-01    rms(broyden)= 0.36223E-01
  rms(prec ) = 0.52247E-01
  weight for this iteration     100.00

 eigenvalues of (default mixing * dielectric matrix)
  average eigenvalue GAMMA=   2.7874
  2.7874  2.7874

 Free energy of the ion-electron system (eV)
  ---------------------------------------------------
  alpha Z        PSCENC =         0.08661929
  Ewald energy   TEWEN  =       147.63649569
  -Hartree energ DENC   =      -206.10683553
  -exchange      EXHF   =         0.00000000
  -V(xc)+E(xc)   XCENC  =        20.96236341
  PAW double counting   =        81.55273361      -81.70283896
  entropy T*S    EENTRO =        -0.22567583
  eigenvalues    EBANDS =       -82.90774280
  atomic energy  EATOM  =        99.56620307
  Solvation  Ediel_sol  =         0.00000000
  ---------------------------------------------------
  free energy    TOTEN  =       -21.13867806 eV

  energy without entropy =      -20.91300222  energy(sigma->0) =      -21.02584014


--------------------------------------------------------------------------------------------------------




--------------------------------------- Iteration      1(   8)  ---------------------------------------


    POTLOK:  cpu time    0.4122: real time    0.4120
    SETDIJ:  cpu time    0.0104: real time    0.0104
     EDDAV:  cpu time    0.2173: real time    0.2578
       DOS:  cpu time    0.0003: real time    0.0003
    CHARGE:  cpu time    0.1144: real time    0.1143
    MIXING:  cpu time    0.0100: real time    0.0100
    --------------------------------------------
      LOOP:  cpu time    0.7645: real time    0.8047

 eigenvalue-minimisations  :    48
 total energy-change (2. order) : 0.7078096E-02  (-0.8100973E-03)
 number of electron       8.0000029 magnetization       0.0000000
 augmentation part        0.1378207 magnetization       0.0000113

 Broyden mixing:
  rms(total) = 0.13854E-01    rms(broyden)= 0.13818E-01
  rms(prec ) = 0.22492E-01
  weight for this iteration     100.00

 eigenvalues of (default mixing * dielectric matrix)
  average eigenvalue GAMMA=   2.1908
  0.9719  3.0475  2.5530

 Free energy of the ion-electron system (eV)
  ---------------------------------------------------
  alpha Z        PSCENC =         0.08661929
  Ewald energy   TEWEN  =       147.63649569
  -Hartree energ DENC   =      -207.97209162
  -exchange      EXHF   =         0.00000000
  -V(xc)+E(xc)   XCENC  =        21.06404597
  PAW double counting   =        77.99326217      -78.13109172
  entropy T*S    EENTRO =        -0.22567583
  eigenvalues    EBANDS =       -81.14936699
  atomic energy  EATOM  =        99.56620307
  Solvation  Ediel_sol  =         0.00000000
  ---------------------------------------------------
  free energy    TOTEN  =       -21.13159996 eV

  energy without entropy =      -20.90592413  energy(sigma->0) =      -21.01876205


--------------------------------------------------------------------------------------------------------




--------------------------------------- Iteration      1(   9)  ---------------------------------------


    POTLOK:  cpu time    0.4188: real time    0.4187
    SETDIJ:  cpu time    0.0106: real time    0.0106
     EDDAV:  cpu time    0.2342: real time    0.2341
       DOS:  cpu time    0.0003: real time    0.0003
    CHARGE:  cpu time    0.1108: real time    0.1107
    MIXING:  cpu time    0.0106: real time    0.0106
    --------------------------------------------
      LOOP:  cpu time    0.7853: real time    0.7850

 eigenvalue-minimisations  :    56
 total energy-change (2. order) : 0.3093848E-02  (-0.2425317E-03)
 number of electron       8.0000029 magnetization      -0.0000000
 augmentation part        0.1375164 magnetization      -0.0000049

 Broyden mixing:
  rms(total) = 0.59989E-02    rms(broyden)= 0.59874E-02
  rms(prec ) = 0.13503E-01
  weight for this iteration     100.00

 eigenvalues of (default mixing * dielectric matrix)
  average eigenvalue GAMMA=   2.0048
  3.1735  2.3831  1.6754  0.7872

 Free energy of the ion-electron system (eV)
  ---------------------------------------------------
  alpha Z        PSCENC =         0.08661929
  Ewald energy   TEWEN  =       147.63649569
  -Hartree energ DENC   =      -209.02749290
  -exchange      EXHF   =         0.00000000
  -V(xc)+E(xc)   XCENC  =        21.15531813
  PAW double counting   =        80.44495650      -80.58498008
  entropy T*S    EENTRO =        -0.22567583
  eigenvalues    EBANDS =       -80.17994999
  atomic energy  EATOM  =        99.56620307
  Solvation  Ediel_sol  =         0.00000000
  ---------------------------------------------------
  free energy    TOTEN  =       -21.12850611 eV

  energy without entropy =      -20.90283028  energy(sigma->0) =      -21.01566820


--------------------------------------------------------------------------------------------------------




--------------------------------------- Iteration      1(  10)  ---------------------------------------


    POTLOK:  cpu time    0.4153: real time    0.4151
    SETDIJ:  cpu time    0.0104: real time    0.0104
     EDDAV:  cpu time    0.2101: real time    0.2100
       DOS:  cpu time    0.0003: real time    0.0003
    CHARGE:  cpu time    0.1111: real time    0.1111
    MIXING:  cpu time    0.0109: real time    0.0109
    --------------------------------------------
      LOOP:  cpu time    0.7581: real time    0.7577

 eigenvalue-minimisations  :    48
 total energy-change (2. order) :-0.5338652E-02  (-0.1130685E-03)
 number of electron       8.0000029 magnetization       0.0000000
 augmentation part        0.1374339 magnetization       0.0000170

 Broyden mixing:
  rms(total) = 0.35330E-02    rms(broyden)= 0.35312E-02
  rms(prec ) = 0.66572E-02
  weight for this iteration     100.00

 eigenvalues of (default mixing * dielectric matrix)
  average eigenvalue GAMMA=   2.3408
  4.5921  2.9677  2.4750  0.9945  0.6746

 Free energy of the ion-electron system (eV)
  ---------------------------------------------------
  alpha Z        PSCENC =         0.08661929
  Ewald energy   TEWEN  =       147.63649569
  -Hartree energ DENC   =      -209.79965733
  -exchange      EXHF   =         0.00000000
  -V(xc)+E(xc)   XCENC  =        21.17441718
  PAW double counting   =        80.74669296      -80.88822069
  entropy T*S    EENTRO =        -0.22567583
  eigenvalues    EBANDS =       -79.43071911
  atomic energy  EATOM  =        99.56620307
  Solvation  Ediel_sol  =         0.00000000
  ---------------------------------------------------
  free energy    TOTEN  =       -21.13384477 eV

  energy without entropy =      -20.90816893  energy(sigma->0) =      -21.02100685


--------------------------------------------------------------------------------------------------------




--------------------------------------- Iteration      1(  11)  ---------------------------------------


    POTLOK:  cpu time    0.4144: real time    0.4142
    SETDIJ:  cpu time    0.0106: real time    0.0106
     EDDAV:  cpu time    0.2216: real time    0.2214
       DOS:  cpu time    0.0003: real time    0.0003
    CHARGE:  cpu time    0.1109: real time    0.1108
    MIXING:  cpu time    0.0116: real time    0.0116
    --------------------------------------------
      LOOP:  cpu time    0.7693: real time    0.7689

 eigenvalue-minimisations  :    52
 total energy-change (2. order) :-0.1736338E-02  (-0.1054675E-04)
 number of electron       8.0000029 magnetization       0.0000000
 augmentation part        0.1374221 magnetization       0.0000010

 Broyden mixing:
  rms(total) = 0.20413E-02    rms(broyden)= 0.20410E-02
  rms(prec ) = 0.45956E-02
  weight for this iteration     100.00

 eigenvalues of (default mixing * dielectric matrix)
  average eigenvalue GAMMA=   2.2595
  4.7729  2.8866  2.5177  1.6731  1.0399  0.6666

 Free energy of the ion-electron system (eV)
  ---------------------------------------------------
  alpha Z        PSCENC =         0.08661929
  Ewald energy   TEWEN  =       147.63649569
  -Hartree energ DENC   =      -209.98124017
  -exchange      EXHF   =         0.00000000
  -V(xc)+E(xc)   XCENC  =        21.17386636
  PAW double counting   =        80.55806242      -80.69958524
  entropy T*S    EENTRO =        -0.22567583
  eigenvalues    EBANDS =       -79.25032669
  atomic energy  EATOM  =        99.56620307
  Solvation  Ediel_sol  =         0.00000000
  ---------------------------------------------------
  free energy    TOTEN  =       -21.13558110 eV

  energy without entropy =      -20.90990527  energy(sigma->0) =      -21.02274319


--------------------------------------------------------------------------------------------------------




--------------------------------------- Iteration      1(  12)  ---------------------------------------


    POTLOK:  cpu time    0.4129: real time    0.4127
    SETDIJ:  cpu time    0.0105: real time    0.0105
     EDDAV:  cpu time    0.2368: real time    0.2367
       DOS:  cpu time    0.0003: real time    0.0003
    CHARGE:  cpu time    0.1106: real time    0.1106
    MIXING:  cpu time    0.0124: real time    0.0123
    --------------------------------------------
      LOOP:  cpu time    0.7836: real time    0.7832

 eigenvalue-minimisations  :    56
 total energy-change (2. order) :-0.5334015E-02  (-0.1017854E-03)
 number of electron       8.0000029 magnetization       0.0000000
 augmentation part        0.1374096 magnetization      -0.0000064

 Broyden mixing:
  rms(total) = 0.11323E-02    rms(broyden)= 0.11322E-02
  rms(prec ) = 0.18511E-02
  weight for this iteration     100.00

 eigenvalues of (default mixing * dielectric matrix)
  average eigenvalue GAMMA=   2.5479
  6.1915  3.8751  2.9192  2.4562  1.0223  0.7325  0.6386

 Free energy of the ion-electron system (eV)
  ---------------------------------------------------
  alpha Z        PSCENC =         0.08661929
  Ewald energy   TEWEN  =       147.63649569
  -Hartree energ DENC   =      -210.10789633
  -exchange      EXHF   =         0.00000000
  -V(xc)+E(xc)   XCENC  =        21.16842266
  PAW double counting   =        80.18559334      -80.32593078
  entropy T*S    EENTRO =        -0.22567583
  eigenvalues    EBANDS =       -79.12474623
  atomic energy  EATOM  =        99.56620307
  Solvation  Ediel_sol  =         0.00000000
  ---------------------------------------------------
  free energy    TOTEN  =       -21.14091512 eV

  energy without entropy =      -20.91523929  energy(sigma->0) =      -21.02807720


--------------------------------------------------------------------------------------------------------




--------------------------------------- Iteration      1(  13)  ---------------------------------------


    POTLOK:  cpu time    0.4096: real time    0.4094
    SETDIJ:  cpu time    0.0105: real time    0.0105
     EDDAV:  cpu time    0.2085: real time    0.2084
       DOS:  cpu time    0.0003: real time    0.0003
    CHARGE:  cpu time    0.1101: real time    0.1100
    MIXING:  cpu time    0.0129: real time    0.0129
    --------------------------------------------
      LOOP:  cpu time    0.7519: real time    0.7515

 eigenvalue-minimisations  :    48
 total energy-change (2. order) :-0.3279327E-03  (-0.1607671E-05)
 number of electron       8.0000029 magnetization       0.0000000
 augmentation part        0.1374061 magnetization       0.0000014

 Broyden mixing:
  rms(total) = 0.68229E-03    rms(broyden)= 0.68226E-03
  rms(prec ) = 0.12743E-02
  weight for this iteration     100.00

 eigenvalues of (default mixing * dielectric matrix)
  average eigenvalue GAMMA=   2.4030
  6.5183  3.9325  2.7704  2.4864  0.9990  1.1731  0.7087  0.6359

 Free energy of the ion-electron system (eV)
  ---------------------------------------------------
  alpha Z        PSCENC =         0.08661929
  Ewald energy   TEWEN  =       147.63649569
  -Hartree energ DENC   =      -210.13558017
  -exchange      EXHF   =         0.00000000
  -V(xc)+E(xc)   XCENC  =        21.16666873
  PAW double counting   =        80.18975041      -80.33021243
  entropy T*S    EENTRO =        -0.22567583
  eigenvalues    EBANDS =       -79.09551181
  atomic energy  EATOM  =        99.56620307
  Solvation  Ediel_sol  =         0.00000000
  ---------------------------------------------------
  free energy    TOTEN  =       -21.14124305 eV

  energy without entropy =      -20.91556722  energy(sigma->0) =      -21.02840514


--------------------------------------------------------------------------------------------------------




--------------------------------------- Iteration      1(  14)  ---------------------------------------


    POTLOK:  cpu time    0.4182: real time    0.4180
    SETDIJ:  cpu time    0.0108: real time    0.0108
     EDDAV:  cpu time    0.2101: real time    0.2101
       DOS:  cpu time    0.0003: real time    0.0003
    CHARGE:  cpu time    0.1109: real time    0.1108
    MIXING:  cpu time    0.0148: real time    0.0148
    --------------------------------------------
      LOOP:  cpu time    0.7650: real time    0.7647

 eigenvalue-minimisations  :    48
 total energy-change (2. order) :-0.4511441E-03  (-0.4282207E-06)
 number of electron       8.0000029 magnetization       0.0000000
 augmentation part        0.1374093 magnetization      -0.0000024

 Broyden mixing:
  rms(total) = 0.41793E-03    rms(broyden)= 0.41790E-03
  rms(prec ) = 0.80942E-03
  weight for this iteration     100.00

 eigenvalues of (default mixing * dielectric matrix)
  average eigenvalue GAMMA=   2.7189
  7.9894  4.5985  3.1278  3.1278  2.4463  1.0195  0.8478  0.6811  0.6315

 Free energy of the ion-electron system (eV)
  ---------------------------------------------------
  alpha Z        PSCENC =         0.08661929
  Ewald energy   TEWEN  =       147.63649569
  -Hartree energ DENC   =      -210.15659743
  -exchange      EXHF   =         0.00000000
  -V(xc)+E(xc)   XCENC  =        21.16603890
  PAW double counting   =        80.29079552      -80.43155634
  entropy T*S    EENTRO =        -0.22567583
  eigenvalues    EBANDS =       -79.07401706
  atomic energy  EATOM  =        99.56620307
  Solvation  Ediel_sol  =         0.00000000
  ---------------------------------------------------
  free energy    TOTEN  =       -21.14169420 eV

  energy without entropy =      -20.91601836  energy(sigma->0) =      -21.02885628


--------------------------------------------------------------------------------------------------------




--------------------------------------- Iteration      1(  15)  ---------------------------------------


    POTLOK:  cpu time    0.4115: real time    0.4113
    SETDIJ:  cpu time    0.0106: real time    0.0106
     EDDAV:  cpu time    0.2098: real time    0.2266
       DOS:  cpu time    0.0003: real time    0.0003
    CHARGE:  cpu time    0.1103: real time    0.1102
    MIXING:  cpu time    0.0149: real time    0.0149
    --------------------------------------------
      LOOP:  cpu time    0.7574: real time    0.7740

 eigenvalue-minimisations  :    48
 total energy-change (2. order) :-0.4540515E-03  (-0.1422587E-05)
 number of electron       8.0000029 magnetization       0.0000000
 augmentation part        0.1374085 magnetization      -0.0000007

 Broyden mixing:
  rms(total) = 0.16681E-03    rms(broyden)= 0.16678E-03
  rms(prec ) = 0.24996E-03
  weight for this iteration     100.00

 eigenvalues of (default mixing * dielectric matrix)
  average eigenvalue GAMMA=   2.6142
  8.5238  4.9060  3.3811  2.7838  2.4620  1.0575  0.9669  0.7534  0.6795  0.6284

 Free energy of the ion-electron system (eV)
  ---------------------------------------------------
  alpha Z        PSCENC =         0.08661929
  Ewald energy   TEWEN  =       147.63649569
  -Hartree energ DENC   =      -210.18037959
  -exchange      EXHF   =         0.00000000
  -V(xc)+E(xc)   XCENC  =        21.16646332
  PAW double counting   =        80.38530947      -80.52624214
  entropy T*S    EENTRO =        -0.22567583
  eigenvalues    EBANDS =       -79.05094154
  atomic energy  EATOM  =        99.56620307
  Solvation  Ediel_sol  =         0.00000000
  ---------------------------------------------------
  free energy    TOTEN  =       -21.14214825 eV

  energy without entropy =      -20.91647241  energy(sigma->0) =      -21.02931033


--------------------------------------------------------------------------------------------------------




--------------------------------------- Iteration      1(  16)  ---------------------------------------


    POTLOK:  cpu time    0.4134: real time    0.4132
    SETDIJ:  cpu time    0.0106: real time    0.0106
     EDDAV:  cpu time    0.2332: real time    0.2331
       DOS:  cpu time    0.0003: real time    0.0003
    CHARGE:  cpu time    0.1105: real time    0.1105
    MIXING:  cpu time    0.0156: real time    0.0156
    --------------------------------------------
      LOOP:  cpu time    0.7837: real time    0.7833

 eigenvalue-minimisations  :    56
 total energy-change (2. order) :-0.3762107E-04  (-0.2158339E-07)
 number of electron       8.0000029 magnetization       0.0000000
 augmentation part        0.1374079 magnetization       0.0000002

 Broyden mixing:
  rms(total) = 0.10456E-03    rms(broyden)= 0.10456E-03
  rms(prec ) = 0.17074E-03
  weight for this iteration     100.00

 eigenvalues of (default mixing * dielectric matrix)
  average eigenvalue GAMMA=   2.6912
  9.0562  5.2233  3.4901  2.7460  2.7460  2.4379  1.0142  0.9006  0.6931  0.6724
  0.6237

 Free energy of the ion-electron system (eV)
  ---------------------------------------------------
  alpha Z        PSCENC =         0.08661929
  Ewald energy   TEWEN  =       147.63649569
  -Hartree energ DENC   =      -210.18098480
  -exchange      EXHF   =         0.00000000
  -V(xc)+E(xc)   XCENC  =        21.16649264
  PAW double counting   =        80.36416566      -80.50505576
  entropy T*S    EENTRO =        -0.22567583
  eigenvalues    EBANDS =       -79.05044582
  atomic energy  EATOM  =        99.56620307
  Solvation  Ediel_sol  =         0.00000000
  ---------------------------------------------------
  free energy    TOTEN  =       -21.14218587 eV

  energy without entropy =      -20.91651004  energy(sigma->0) =      -21.02934795


--------------------------------------------------------------------------------------------------------




--------------------------------------- Iteration      1(  17)  ---------------------------------------


    POTLOK:  cpu time    0.4190: real time    0.4188
    SETDIJ:  cpu time    0.0107: real time    0.0107
     EDDAV:  cpu time    0.2109: real time    0.2108
       DOS:  cpu time    0.0003: real time    0.0003
    CHARGE:  cpu time    0.1147: real time    0.1147
    MIXING:  cpu time    0.0167: real time    0.0167
    --------------------------------------------
      LOOP:  cpu time    0.7723: real time    0.7720

 eigenvalue-minimisations  :    48
 total energy-change (2. order) :-0.6100956E-04  (-0.9799810E-07)
 number of electron       8.0000029 magnetization       0.0000000
 augmentation part        0.1374075 magnetization       0.0000001

 Broyden mixing:
  rms(total) = 0.48600E-04    rms(broyden)= 0.48597E-04
  rms(prec ) = 0.68553E-04
  weight for this iteration     100.00

 eigenvalues of (default mixing * dielectric matrix)
  average eigenvalue GAMMA=   2.6518
  9.4448  5.3890  4.0079  3.0337  2.6463  2.4669  1.0001  1.0628  0.7945  0.6982
  0.6218  0.6557

 Free energy of the ion-electron system (eV)
  ---------------------------------------------------
  alpha Z        PSCENC =         0.08661929
  Ewald energy   TEWEN  =       147.63649569
  -Hartree energ DENC   =      -210.18413076
  -exchange      EXHF   =         0.00000000
  -V(xc)+E(xc)   XCENC  =        21.16657185
  PAW double counting   =        80.31941793      -80.46022589
  entropy T*S    EENTRO =        -0.22567583
  eigenvalues    EBANDS =       -79.04752223
  atomic energy  EATOM  =        99.56620307
  Solvation  Ediel_sol  =         0.00000000
  ---------------------------------------------------
  free energy    TOTEN  =       -21.14224688 eV

  energy without entropy =      -20.91657105  energy(sigma->0) =      -21.02940896


--------------------------------------------------------------------------------------------------------




--------------------------------------- Iteration      1(  18)  ---------------------------------------


    POTLOK:  cpu time    0.4129: real time    0.4128
    SETDIJ:  cpu time    0.0105: real time    0.0105
     EDDAV:  cpu time    0.2089: real time    0.2088
       DOS:  cpu time    0.0003: real time    0.0003
    CHARGE:  cpu time    0.1106: real time    0.1106
    MIXING:  cpu time    0.0178: real time    0.0177
    --------------------------------------------
      LOOP:  cpu time    0.7610: real time    0.7607

 eigenvalue-minimisations  :    48
 total energy-change (2. order) :-0.3777414E-05  (-0.4018769E-08)
 number of electron       8.0000029 magnetization      -0.0000000
 augmentation part        0.1374073 magnetization      -0.0000000

 Broyden mixing:
  rms(total) = 0.27761E-04    rms(broyden)= 0.27759E-04
  rms(prec ) = 0.46608E-04
  weight for this iteration     100.00

 eigenvalues of (default mixing * dielectric matrix)
  average eigenvalue GAMMA=   2.5876
  9.5110  5.3877  4.1852  2.9607  2.6690  2.4400  1.8296  1.0037  0.9495  0.7164
  0.7164  0.6227  0.6475

 Free energy of the ion-electron system (eV)
  ---------------------------------------------------
  alpha Z        PSCENC =         0.08661929
  Ewald energy   TEWEN  =       147.63649569
  -Hartree energ DENC   =      -210.18554263
  -exchange      EXHF   =         0.00000000
  -V(xc)+E(xc)   XCENC  =        21.16664390
  PAW double counting   =        80.31972811      -80.46053221
  entropy T*S    EENTRO =        -0.22567583
  eigenvalues    EBANDS =       -79.04619005
  atomic energy  EATOM  =        99.56620307
  Solvation  Ediel_sol  =         0.00000000
  ---------------------------------------------------
  free energy    TOTEN  =       -21.14225066 eV

  energy without entropy =      -20.91657482  energy(sigma->0) =      -21.02941274


--------------------------------------------------------------------------------------------------------




--------------------------------------- Iteration      1(  19)  ---------------------------------------


    POTLOK:  cpu time    0.4157: real time    0.4155
    SETDIJ:  cpu time    0.0107: real time    0.0107
     EDDAV:  cpu time    0.2097: real time    0.2096
       DOS:  cpu time    0.0003: real time    0.0003
    CHARGE:  cpu time    0.1106: real time    0.1105
    MIXING:  cpu time    0.0188: real time    0.0188
    --------------------------------------------
      LOOP:  cpu time    0.7657: real time    0.7654

 eigenvalue-minimisations  :    48
 total energy-change (2. order) :-0.7750366E-05  (-0.5174432E-08)
 number of electron       8.0000029 magnetization      -0.0000000
 augmentation part        0.1374070 magnetization      -0.0000001

 Broyden mixing:
  rms(total) = 0.24133E-04    rms(broyden)= 0.24131E-04
  rms(prec ) = 0.31270E-04
  weight for this iteration     100.00

 eigenvalues of (default mixing * dielectric matrix)
  average eigenvalue GAMMA=   2.6134
  9.5521  5.5912  4.3613  3.5128  3.0342  2.5137  2.5137  1.0140  1.0140  0.8187
  0.7273  0.6742  0.6209  0.6392

 Free energy of the ion-electron system (eV)
  ---------------------------------------------------
  alpha Z        PSCENC =         0.08661929
  Ewald energy   TEWEN  =       147.63649569
  -Hartree energ DENC   =      -210.18622064
  -exchange      EXHF   =         0.00000000
  -V(xc)+E(xc)   XCENC  =        21.16664449
  PAW double counting   =        80.33270902      -80.47352916
  entropy T*S    EENTRO =        -0.22567583
  eigenvalues    EBANDS =       -79.04550434
  atomic energy  EATOM  =        99.56620307
  Solvation  Ediel_sol  =         0.00000000
  ---------------------------------------------------
  free energy    TOTEN  =       -21.14225841 eV

  energy without entropy =      -20.91658257  energy(sigma->0) =      -21.02942049


--------------------------------------------------------------------------------------------------------




--------------------------------------- Iteration      1(  20)  ---------------------------------------


    POTLOK:  cpu time    0.4157: real time    0.4156
    SETDIJ:  cpu time    0.0106: real time    0.0106
     EDDAV:  cpu time    0.2099: real time    0.2098
       DOS:  cpu time    0.0003: real time    0.0003
    --------------------------------------------
      LOOP:  cpu time    0.6365: real time    0.6363

 eigenvalue-minimisations  :    48
 total energy-change (2. order) :-0.9159297E-06  (-0.8110051E-09)
 number of electron       8.0000029 magnetization      -0.0000000
 augmentation part        0.1374070 magnetization      -0.0000001

 Free energy of the ion-electron system (eV)
  ---------------------------------------------------
  alpha Z        PSCENC =         0.08661929
  Ewald energy   TEWEN  =       147.63649569
  -Hartree energ DENC   =      -210.18524414
  -exchange      EXHF   =         0.00000000
  -V(xc)+E(xc)   XCENC  =        21.16655174
  PAW double counting   =        80.33274725      -80.47357145
  entropy T*S    EENTRO =        -0.22567583
  eigenvalues    EBANDS =       -79.04638494
  atomic energy  EATOM  =        99.56620307
  Solvation  Ediel_sol  =         0.00000000
  ---------------------------------------------------
  free energy    TOTEN  =       -21.14225932 eV

  energy without entropy =      -20.91658349  energy(sigma->0) =      -21.02942141


--------------------------------------------------------------------------------------------------------




 average (electrostatic) potential at core
  the test charge radii are     0.5201
  (the norm of the test charge is              1.0000)
       1 -41.3546       2 -41.3546       3 -41.3546       4 -41.3546       5 -41.3546
       6 -41.3546       7 -41.3546       8 -41.3546
 
 
 
 E-fermi :  -4.0795     XC(G=0):  -0.4910     alpha+bet : -0.1227


 spin component 1

 k-point     1 :       0.0000    0.0000    0.0000
  band No.  band energies     occupation 
      1     -13.3648      1.00000
      2     -11.0394      1.00000
      3     -11.0394      1.00000
      4      -4.0795      0.50001
      5      -4.0795      0.49999
      6      -0.1310      0.00000
      7      -0.1310      0.00000
      8      -0.1214      0.00000
      9       0.5670      0.00000
     10       0.5919      0.00000
     11       0.9336      0.00000
     12       0.9336      0.00000

 spin component 2

 k-point     1 :       0.0000    0.0000    0.0000
  band No.  band energies     occupation 
      1     -13.3648      1.00000
      2     -11.0394      1.00000
      3     -11.0394      1.00000
      4      -4.0795      0.50001
      5      -4.0795      0.49999
      6      -0.1315      0.00000
      7      -0.1315      0.00000
      8      -0.1218      0.00000
      9       0.5670      0.00000
     10       0.5925      0.00000
     11       0.9333      0.00000
     12       0.9333      0.00000


--------------------------------------------------------------------------------------------------------


 soft charge-density along one line, spin component           1
         0         1         2         3         4         5         6         7         8         9
 total charge-density along one line
 
 soft charge-density along one line, spin component           2
         0         1         2         3         4         5         6         7         8         9
 total charge-density along one line
 
 pseudopotential strength for first ion, spin component:           1
 -2.345  -4.040   0.000  -0.000  -0.000
 -4.040  -6.876   0.000  -0.000  -0.000
  0.000   0.000  -0.343   0.000   0.000
 -0.000  -0.000   0.000  -0.340   0.000
 -0.000  -0.000   0.000   0.000  -0.343
 pseudopotential strength for first ion, spin component:           2
 -2.345  -4.040   0.000  -0.000  -0.000
 -4.040  -6.876   0.000  -0.000  -0.000
  0.000   0.000  -0.343   0.000   0.000
 -0.000  -0.000   0.000  -0.340   0.000
 -0.000  -0.000   0.000   0.000  -0.343
 total augmentation occupancy for first ion, spin component:           1
  3.327  -0.686   0.000   0.000   0.000
 -0.686   0.154  -0.000   0.000   0.000
  0.000  -0.000   0.000  -0.000   0.000
  0.000   0.000  -0.000   0.037   0.000
 -0.000   0.000   0.000  -0.000   0.000
 total augmentation occupancy for first ion, spin component:           2
  0.000  -0.000   0.000  -0.000  -0.000
 -0.000   0.000   0.000  -0.000   0.000
  0.000   0.000  -0.000  -0.000  -0.000
 -0.000  -0.000  -0.000   0.000  -0.000
  0.000  -0.000  -0.000   0.000  -0.000


------------------------ aborting loop because EDIFF is reached ----------------------------------------


    CHARGE:  cpu time    0.1102: real time    0.1101
    FORLOC:  cpu time    0.0170: real time    0.0170
    FORNL :  cpu time    0.0362: real time    0.0362
    STRESS:  cpu time    0.1376: real time    0.1376
    FORHAR:  cpu time    0.0408: real time    0.0408
    MIXING:  cpu time    0.0198: real time    0.0198
    OFIELD:  cpu time    0.0001: real time    0.0001

  FORCE on cell =-STRESS in cart. coord.  units (eV):
  Direction    XX          YY          ZZ          XY          YZ          ZX
  --------------------------------------------------------------------------------------
  Alpha Z     0.08662     0.08662     0.08662
  Ewald     -57.59914   -57.59914   262.83477     0.00000     0.00000     0.00000
  Hartree     0.10549     0.10549   209.97472    -0.00000    -0.00000    -0.00000
  E(xc)     -23.84625   -23.84625   -21.30269     0.00000     0.00000     0.00000
  Local      17.69797    17.69797  -485.89566     0.00000    -0.00000    -0.00000
  n-local   -19.36714   -19.36714   -21.51426     0.00000    -0.00000    -0.00000
  augment     0.86966     0.86966     0.73954     0.00000     0.00000     0.00000
  Kinetic    80.76561    80.76561    59.52859    -0.00000    -0.00000    -0.00000
  Fock        0.00000     0.00000     0.00000     0.00000     0.00000     0.00000
  -------------------------------------------------------------------------------------
  Total      -1.28718    -1.28718     4.45163    -0.00000    -0.00000    -0.00000
  in kB      -1.14571    -1.14571     3.96239    -0.00000    -0.00000    -0.00000
  external pressure =        0.56 kB  Pullay stress =        0.00 kB


 VOLUME and BASIS-vectors are now :
 -----------------------------------------------------------------------------
  energy-cutoff  :      300.00
  volume of cell :     1800.00
      direct lattice vectors                 reciprocal lattice vectors
    15.000000000  0.000000000  0.000000000     0.066666667 -0.000000000  0.000000000
     0.000000000 15.000000000  0.000000000     0.000000000  0.066666667  0.000000000
     0.000000000  0.000000000  8.000000000    -0.000000000 -0.000000000  0.125000000

  length of vectors
    15.000000000 15.000000000  8.000000000     0.066666667  0.066666667  0.125000000


 FORCES acting on ions
    electron-ion (+dipol)            ewald-force                    non-local-force                 convergence-correction
 -----------------------------------------------------------------------------------------------
   -.118E-17 -.309E-16 -.465E-15   0.158E-18 0.471E-18 -.178E-14   -.148E-26 -.242E-26 -.505E-28   0.997E-16 -.290E-15 0.965E-16
   0.872E-17 -.215E-16 0.613E-15   0.300E-18 0.362E-18 -.444E-15   0.253E-26 -.177E-27 -.101E-27   0.907E-16 -.288E-15 0.362E-16
   -.277E-18 -.300E-16 0.144E-14   0.411E-18 0.253E-18 -.888E-15   0.123E-26 0.000E+00 0.252E-28   0.861E-16 -.284E-15 -.506E-16
   0.841E-17 -.216E-16 0.280E-14   0.479E-19 -.829E-20 0.836E-15   0.985E-28 -.242E-26 0.505E-28   0.928E-16 -.281E-15 -.542E-16
   0.440E-17 -.253E-16 0.222E-14   0.503E-18 0.250E-18 0.888E-15   0.272E-27 0.808E-27 0.000E+00   0.837E-16 -.281E-15 -.137E-15
   0.368E-17 -.294E-16 0.344E-14   0.139E-18 -.123E-19 -.888E-15   0.428E-26 -.246E-26 -.505E-28   0.929E-16 -.281E-15 0.132E-15
   0.141E-17 -.308E-16 0.540E-14   0.250E-18 -.120E-18 0.000E+00   0.386E-27 -.162E-26 0.252E-28   0.114E-15 -.284E-15 0.304E-16
   0.582E-17 -.269E-16 0.578E-14   0.393E-18 -.229E-18 -.356E-14   0.963E-27 0.303E-27 -.252E-28   0.115E-15 -.288E-15 -.101E-15
 -----------------------------------------------------------------------------------------------
   0.310E-16 -.216E-15 0.212E-13   0.220E-17 0.967E-18 -.583E-14   0.827E-26 -.799E-26 -.126E-27   0.775E-15 -.228E-14 -.470E-16
 
 
 POSITION                                       TOTAL-FORCE (eV/Angst)
 -----------------------------------------------------------------------------------
      0.00000      0.00000      0.00000         0.000000      0.000000      0.000000
      0.00000      0.00000      1.00000        -0.000000      0.000000     -0.000000
      0.00000      0.00000      2.00000         0.000000     -0.000000      0.000000
      0.00000      0.00000      3.00000        -0.000000     -0.000000      0.000000
      0.00000      0.00000      4.00000         0.000000      0.000000      0.000000
      0.00000      0.00000      5.00000         0.000000      0.000000     -0.000000
      0.00000      0.00000      6.00000        -0.000000     -0.000000     -0.000000
      0.00000      0.00000      7.00000        -0.000000      0.000000      0.000000
 -----------------------------------------------------------------------------------
    total drift:                                0.000000     -0.000000      0.000000


--------------------------------------------------------------------------------------------------------



  FREE ENERGIE OF THE ION-ELECTRON SYSTEM (eV)
  ---------------------------------------------------
  free  energy   TOTEN  =       -21.14225932 eV

  energy  without entropy=      -20.91658349  energy(sigma->0) =      -21.02942141
 


--------------------------------------------------------------------------------------------------------


    POTLOK:  cpu time    0.4259: real time    0.4257


--------------------------------------------------------------------------------------------------------


     LOOP+:  cpu time   14.0198: real time   14.0718
    4ORBIT:  cpu time    0.0000: real time    0.0000

 total amount of memory used by VASP MPI-rank0    80013. kBytes
=======================================================================

   base      :      30000. kBytes
   nonl-proj :       3556. kBytes
   fftplans  :      10783. kBytes
   grid      :      33619. kBytes
   one-center:         19. kBytes
   wavefun   :       2036. kBytes
 
  
  
 General timing and accounting informations for this job:
 ========================================================
  
                  Total CPU time used (sec):       14.733
                            User time (sec):       14.072
                          System time (sec):        0.661
                         Elapsed time (sec):       15.130
  
                   Maximum memory used (kb):      234740.
                   Average memory used (kb):           0.
  
                          Minor page faults:       201807
                          Major page faults:            0
                 Voluntary context switches:         1025
