<?xml version="1.0" encoding="ISO-8859-1"?>
<modeling>
 <generator>
  <i name="program" type="string">vasp </i>
  <i name="version" type="string">5.4.4.18Apr17-6-g9f103f2a35  </i>
  <i name="subversion" type="string">(build Aug 24 2024 05:40:03) complex            parallel </i>
  <i name="platform" type="string">IFC22_IMPI </i>
  <i name="date" type="string">2024 11 22 </i>
  <i name="time" type="string">21:39:19 </i>
 </generator>
 <incar>
  <i type="string" name="PREC">normal</i>
  <i type="int" name="ISPIN">     2</i>
  <i type="int" name="ICHARG">     2</i>
  <i type="int" name="NELM">   100</i>
  <i name="EDIFF">      0.00000100</i>
  <i type="int" name="NSW">     0</i>
  <i name="ENCUT">    300.00000000</i>
  <i name="NUPDOWN">      0.00000000</i>
  <i type="int" name="ISMEAR">     0</i>
  <i name="SIGMA">      0.20000000</i>
  <i type="logical" name="LWAVE"> F  </i>
  <i type="logical" name="LCHARG"> F  </i>
  <v type="int" name="KPOINT_BSE">    -1     0     0     0</v>
  <i type="int" name="NELM">   100</i>
 </incar>
 <structure name="primitive_cell" >
  <crystal>
   <varray name="basis" >
    <v>      15.00000000       0.00000000       0.00000000 </v>
    <v>       0.00000000      15.00000000       0.00000000 </v>
    <v>       0.00000000       0.00000000       1.00000000 </v>
   </varray>
   <i name="volume">    225.00000000 </i>
   <varray name="rec_basis" >
    <v>       0.06666667      -0.00000000       0.00000000 </v>
    <v>       0.00000000       0.06666667       0.00000000 </v>
    <v>      -0.00000000      -0.00000000       1.00000000 </v>
   </varray>
  </crystal>
  <varray name="positions" >
   <v>       0.00000000       0.00000000       0.00000000 </v>
  </varray>
 </structure>
 <varray name="primitive_index" >
  <v type="int" >        1 </v>
 </varray>
 <kpoints>
  <generation param="Gamma">
   <v type="int" name="divisions">       1        1        1 </v>
   <v name="usershift">      0.00000000       0.00000000       0.00000000 </v>
   <v name="genvec1">      1.00000000      -0.00000000       0.00000000 </v>
   <v name="genvec2">      0.00000000       1.00000000       0.00000000 </v>
   <v name="genvec3">      0.00000000      -0.00000000       1.00000000 </v>
   <v name="shift">      0.00000000       0.00000000       0.00000000 </v>
  </generation>
  <varray name="kpointlist" >
   <v>       0.00000000       0.00000000       0.00000000 </v>
  </varray>
  <varray name="weights" >
   <v>       1.00000000 </v>
  </varray>
 </kpoints>
 <parameters>
  <separator name="general" >
   <i type="string" name="SYSTEM">unknown system</i>
   <i type="logical" name="LCOMPAT"> F  </i>
  </separator>
  <separator name="electronic" >
   <i type="string" name="PREC">normal</i>
   <i name="ENMAX">    300.00000000</i>
   <i name="ENAUG">    400.00000000</i>
   <i name="EDIFF">      0.00000100</i>
   <i type="int" name="IALGO">    38</i>
   <i type="int" name="IWAVPR">    10</i>
   <i type="int" name="NBANDS">    12</i>
   <i name="NELECT">      8.00000000</i>
   <i type="int" name="TURBO">     0</i>
   <i type="int" name="IRESTART">     0</i>
   <i type="int" name="NREBOOT">     0</i>
   <i type="int" name="NMIN">     0</i>
   <i name="EREF">      0.00000000</i>
   <separator name="electronic smearing" >
    <i type="int" name="ISMEAR">     0</i>
    <i name="SIGMA">      0.20000000</i>
    <i name="KSPACING">      0.50000000</i>
    <i type="logical" name="KGAMMA"> T  </i>
   </separator>
   <separator name="electronic projectors" >
    <i type="logical" name="LREAL"> F  </i>
    <v name="ROPT">      0.00000000</v>
    <i type="int" name="LMAXPAW">  -100</i>
    <i type="int" name="LMAXMIX">     2</i>
    <i type="logical" name="NLSPLINE"> F  </i>
   </separator>
   <separator name="electronic startup" >
    <i type="int" name="ISTART">     0</i>
    <i type="int" name="ICHARG">     2</i>
    <i type="int" name="INIWAV">     1</i>
   </separator>
   <separator name="electronic spin" >
    <i type="int" name="ISPIN">     2</i>
    <i type="logical" name="LNONCOLLINEAR"> F  </i>
    <v name="MAGMOM">      0.00000000      0.00000000      0.00000000      0.00000000      0.00000000      0.00000000      0.00000000      0.00000000</v>
    <i name="NUPDOWN">      0.00000000</i>
    <i type="logical" name="LSORBIT"> F  </i>
    <v name="SAXIS">      0.00000000      0.00000000      1.00000000</v>
    <i type="logical" name="LSPIRAL"> F  </i>
    <v name="QSPIRAL">      0.00000000      0.00000000      0.00000000</v>
    <i type="logical" name="LZEROZ"> F  </i>
   </separator>
   <separator name="electronic exchange-correlation" >
    <i type="logical" name="LASPH"> F  </i>
    <i type="logical" name="LMETAGGA"> F  </i>
   </separator>
   <separator name="electronic convergence" >
    <i type="int" name="NELM">   100</i>
    <i type="int" name="NELMDL">    -5</i>
    <i type="int" name="NELMIN">     2</i>
    <i name="ENINI">    300.00000000</i>
    <separator name="electronic convergence detail" >
     <i type="logical" name="LDIAG"> T  </i>
     <i type="logical" name="LSUBROT"> F  </i>
     <i name="WEIMIN">      0.00000000</i>
     <i name="EBREAK">      0.00000002</i>
     <i name="DEPER">      0.30000000</i>
     <i type="int" name="NRMM">     4</i>
     <i name="TIME">      0.40000000</i>
    </separator>
   </separator>
   <separator name="electronic mixer" >
    <i name="AMIX">      0.40000000</i>
    <i name="BMIX">      1.00000000</i>
    <i name="AMIN">      0.10000000</i>
    <i name="AMIX_MAG">      1.60000000</i>
    <i name="BMIX_MAG">      1.00000000</i>
    <separator name="electronic mixer details" >
     <i type="int" name="IMIX">     4</i>
     <i type="logical" name="MIXFIRST"> F  </i>
     <i type="int" name="MAXMIX">   -45</i>
     <i name="WC">    100.00000000</i>
     <i type="int" name="INIMIX">     1</i>
     <i type="int" name="MIXPRE">     1</i>
     <i type="int" name="MREMOVE">     5</i>
    </separator>
   </separator>
   <separator name="electronic dipolcorrection" >
    <i type="logical" name="LDIPOL"> F  </i>
    <i type="logical" name="LMONO"> F  </i>
    <i type="int" name="IDIPOL">     0</i>
    <i name="EPSILON">      1.00000000</i>
    <v name="DIPOL">   -100.00000000   -100.00000000   -100.00000000</v>
    <i name="EFIELD">      0.00000000</i>
   </separator>
  </separator>
  <separator name="grids" >
   <i type="int" name="NGX">    64</i>
   <i type="int" name="NGY">    64</i>
   <i type="int" name="NGZ">    36</i>
   <i type="int" name="NGXF">   128</i>
   <i type="int" name="NGYF">   128</i>
   <i type="int" name="NGZF">    72</i>
   <i type="logical" name="ADDGRID"> F  </i>
  </separator>
  <separator name="ionic" >
   <i type="int" name="NSW">     0</i>
   <i type="int" name="IBRION">    -1</i>
   <i type="int" name="MDALGO">     0</i>
   <i type="int" name="ISIF">     2</i>
   <i name="PSTRESS">      0.00000000</i>
   <i name="EDIFFG">      0.00001000</i>
   <i type="int" name="NFREE">     0</i>
   <i name="POTIM">      0.50000000</i>
   <i name="SMASS">     -3.00000000</i>
   <i name="SCALEE">      1.00000000</i>
  </separator>
  <separator name="ionic md" >
   <i name="TEBEG">      0.00010000</i>
   <i name="TEEND">      0.00010000</i>
   <i type="int" name="NBLOCK">     1</i>
   <i type="int" name="KBLOCK">     1</i>
   <i type="int" name="NPACO">   256</i>
   <i name="APACO">     16.00000000</i>
  </separator>
  <separator name="symmetry" >
   <i type="int" name="ISYM">     2</i>
   <i name="SYMPREC">      0.00001000</i>
  </separator>
  <separator name="dos" >
   <i type="int" name="LORBIT">     0</i>
   <v name="RWIGS">     -1.00000000</v>
   <i type="int" name="NEDOS">   301</i>
   <i name="EMIN">     10.00000000</i>
   <i name="EMAX">    -10.00000000</i>
   <i name="EFERMI">      0.00000000</i>
  </separator>
  <separator name="writing" >
   <i type="int" name="NWRITE">     2</i>
   <i type="logical" name="LWAVE"> F  </i>
   <i type="logical" name="LDOWNSAMPLE"> F  </i>
   <i type="logical" name="LCHARG"> F  </i>
   <i type="logical" name="LPARD"> F  </i>
   <i type="logical" name="LVTOT"> F  </i>
   <i type="logical" name="LVHAR"> F  </i>
   <i type="logical" name="LELF"> F  </i>
   <i type="logical" name="LOPTICS"> F  </i>
   <v name="STM">      0.00000000      0.00000000      0.00000000      0.00000000      0.00000000      0.00000000      0.00000000</v>
  </separator>
  <separator name="performance" >
   <i type="int" name="NPAR">     4</i>
   <i type="int" name="NSIM">     4</i>
   <i type="int" name="NBLK">    -1</i>
   <i type="logical" name="LPLANE"> T  </i>
   <i type="logical" name="LSCALAPACK"> T  </i>
   <i type="logical" name="LSCAAWARE"> F  </i>
   <i type="logical" name="LSCALU"> F  </i>
   <i type="logical" name="LASYNC"> F  </i>
   <i type="logical" name="LORBITALREAL"> F  </i>
  </separator>
  <separator name="miscellaneous" >
   <i type="int" name="IDIOT">     3</i>
   <i type="int" name="ISPECIAL">     0</i>
   <i type="logical" name="LMUSIC"> F  </i>
   <v name="POMASS">      1.00000000</v>
   <v name="DARWINR">      0.00000000</v>
   <v name="DARWINV">      1.00000000</v>
   <i type="logical" name="LCORR"> T  </i>
  </separator>
  <i type="logical" name="GGA_COMPAT"> T  </i>
  <i type="logical" name="LBERRY"> F  </i>
  <i type="int" name="ICORELEVEL">     0</i>
  <i type="logical" name="LDAU"> F  </i>
  <i type="int" name="I_CONSTRAINED_M">     0</i>
  <separator name="electronic exchange-correlation" >
   <i type="string" name="GGA">--</i>
   <i type="int" name="VOSKOWN">     0</i>
   <i type="logical" name="LHFCALC"> F  </i>
   <i type="string" name="PRECFOCK"></i>
   <i type="logical" name="LSYMGRAD"> F  </i>
   <i type="logical" name="LHFONE"> F  </i>
   <i type="logical" name="LRHFCALC"> F  </i>
   <i type="logical" name="LTHOMAS"> F  </i>
   <i type="logical" name="LMODELHF"> F  </i>
   <i name="ENCUT4O">     -1.00000000</i>
   <i type="int" name="EXXOEP">     0</i>
   <i type="int" name="FOURORBIT">     0</i>
   <i name="AEXX">      0.00000000</i>
   <i name="HFALPHA">      0.00000000</i>
   <i name="MCALPHA">      0.00000000</i>
   <i name="ALDAX">      1.00000000</i>
   <i name="AGGAX">      1.00000000</i>
   <i name="ALDAC">      1.00000000</i>
   <i name="AGGAC">      1.00000000</i>
   <i type="int" name="NKREDX">     1</i>
   <i type="int" name="NKREDY">     1</i>
   <i type="int" name="NKREDZ">     1</i>
   <i type="logical" name="SHIFTRED"> F  </i>
   <i type="logical" name="ODDONLY"> F  </i>
   <i type="logical" name="EVENONLY"> F  </i>
   <i type="int" name="LMAXFOCK">     0</i>
   <i type="int" name="NMAXFOCKAE">     0</i>
   <i type="logical" name="LFOCKAEDFT"> F  </i>
   <i name="HFSCREEN">      0.00000000</i>
   <i name="HFSCREENC">      0.00000000</i>
   <i type="int" name="NBANDSGWLOW">     0</i>
  </separator>
  <separator name="vdW DFT" >
   <i type="logical" name="LUSE_VDW"> F  </i>
   <i name="Zab_VDW">     -0.84910000</i>
   <i name="PARAM1">      0.12340000</i>
   <i name="PARAM2">      1.00000000</i>
   <i name="PARAM3">      0.00000000</i>
  </separator>
  <separator name="model GW" >
   <i type="int" name="MODEL_GW">     0</i>
   <i name="MODEL_EPS0">    135.00000000</i>
   <i name="MODEL_ALPHA">      1.00000000</i>
  </separator>
  <separator name="linear response parameters" >
   <i type="logical" name="LEPSILON"> F  </i>
   <i type="logical" name="LRPA"> F  </i>
   <i type="logical" name="LNABLA"> F  </i>
   <i type="logical" name="LVEL"> F  </i>
   <i type="int" name="KINTER">     0</i>
   <i name="CSHIFT">      0.10000000</i>
   <i name="OMEGAMAX">     -1.00000000</i>
   <i name="DEG_THRESHOLD">      0.00200000</i>
   <i name="RTIME">     -0.10000000</i>
   <i name="WPLASMAI">      0.00000000</i>
   <v name="DFIELD">      0.00000000      0.00000000      0.00000000</v>
   <v name="WPLASMA">      0.00000000      0.00000000      0.00000000      0.00000000      0.00000000      0.00000000      0.00000000      0.00000000      0.00000000</v>
  </separator>
  <separator name="orbital magnetization" >
   <i type="logical" name="NUCIND"> F  </i>
   <v name="MAGPOS">      0.00000000      0.00000000      0.00000000</v>
   <i type="logical" name="LNICSALL"> T  </i>
   <i type="logical" name="ORBITALMAG"> F  </i>
   <i type="logical" name="LMAGBLOCH"> F  </i>
   <i type="logical" name="LCHIMAG"> F  </i>
   <i type="logical" name="LGAUGE"> T  </i>
   <i type="int" name="MAGATOM">     0</i>
   <v name="MAGDIPOL">      0.00000000      0.00000000      0.00000000</v>
   <v name="AVECCONST">      0.00000000      0.00000000      0.00000000</v>
  </separator>
  <separator name="response functions" >
   <i type="logical" name="LADDER"> F  </i>
   <i type="logical" name="LRPAFORCE"> F  </i>
   <i type="logical" name="LFXC"> F  </i>
   <i type="logical" name="LHARTREE"> T  </i>
   <i type="int" name="IBSE">     0</i>
   <v type="int" name="KPOINT">    -1     0     0     0</v>
   <i type="logical" name="LTCTE"> F  </i>
   <i type="logical" name="LTETE"> F  </i>
   <i type="logical" name="LTRIPLET"> F  </i>
   <i type="logical" name="LFXCEPS"> F  </i>
   <i type="logical" name="LFXHEG"> F  </i>
   <i type="int" name="NATURALO">     2</i>
   <i type="logical" name="L2ORDER"> F  </i>
   <i type="logical" name="LMP2LT"> F  </i>
   <i type="logical" name="LUSEW"> F  </i>
   <i name="ENCUTGW">     -2.00000000</i>
   <i name="ENCUTGWSOFT">     -2.00000000</i>
   <i name="ENCUTLF">     -1.00000000</i>
   <i type="int" name="LMAXMP2">    -1</i>
   <i name="SCISSOR">      0.00000000</i>
   <i type="int" name="NOMEGA">     0</i>
   <i type="int" name="NOMEGAR">     0</i>
   <i type="int" name="NBANDSGW">    -1</i>
   <i type="int" name="NBANDSO">    -1</i>
   <i type="int" name="NBANDSV">    -1</i>
   <i type="int" name="NELM">   100</i>
   <i type="int" name="NELMHF">     1</i>
   <i type="int" name="DIM">     3</i>
   <i type="int" name="ANTIRES">     0</i>
   <i name="OMEGAMAX">    -30.00000000</i>
   <i name="OMEGAMIN">    -30.00000000</i>
   <i name="OMEGATL">   -200.00000000</i>
   <i type="int" name="OMEGAGRID">   140</i>
   <i name="CSHIFT">     -0.10000000</i>
   <i type="logical" name="SELFENERGY"> F  </i>
   <i type="logical" name="LSPECTRAL"> F  </i>
   <i type="logical" name="LSPECTRALGW"> F  </i>
   <i type="logical" name="LSINGLES"> F  </i>
   <i type="logical" name="LFERMIGW"> F  </i>
   <i type="logical" name="ODDONLYGW"> F  </i>
   <i type="logical" name="EVENONLYGW"> F  </i>
   <i type="int" name="NKREDLFX">     1</i>
   <i type="int" name="NKREDLFY">     1</i>
   <i type="int" name="NKREDLFZ">     1</i>
   <i type="int" name="MAXMEM">  2800</i>
   <i type="int" name="TELESCOPE">     0</i>
   <i type="int" name="TAUPAR">     1</i>
   <i type="int" name="OMEGAPAR">    -1</i>
   <i name="LAMBDA">      1.00000000</i>
  </separator>
  <separator name="External order field" >
   <i name="OFIELD_KAPPA">      0.00000000</i>
   <v name="OFIELD_K">      0.00000000      0.00000000      0.00000000</v>
   <i name="OFIELD_Q6_NEAR">      0.00000000</i>
   <i name="OFIELD_Q6_FAR">      0.00000000</i>
   <i name="OFIELD_A">      0.00000000</i>
  </separator>
 </parameters>
 <atominfo>
  <atoms>       8 </atoms>
  <types>       1 </types>
  <array name="atoms" >
   <dimension dim="1">ion</dimension>
   <field type="string">element</field>
   <field type="int">atomtype</field>
   <set>
    <rc><c>H </c><c>   1</c></rc>
    <rc><c>H </c><c>   1</c></rc>
    <rc><c>H </c><c>   1</c></rc>
    <rc><c>H </c><c>   1</c></rc>
    <rc><c>H </c><c>   1</c></rc>
    <rc><c>H </c><c>   1</c></rc>
    <rc><c>H </c><c>   1</c></rc>
    <rc><c>H </c><c>   1</c></rc>
   </set>
  </array>
  <array name="atomtypes" >
   <dimension dim="1">type</dimension>
   <field type="int">atomspertype</field>
   <field type="string">element</field>
   <field>mass</field>
   <field>valence</field>
   <field type="string">pseudopotential</field>
   <set>
    <rc><c>   8</c><c>H </c><c>      1.00000000</c><c>      1.00000000</c><c>  PAW_PBE H 15Jun2001                   </c></rc>
   </set>
  </array>
 </atominfo>
 <structure name="initialpos" >
  <crystal>
   <varray name="basis" >
    <v>      15.00000000       0.00000000       0.00000000 </v>
    <v>       0.00000000      15.00000000       0.00000000 </v>
    <v>       0.00000000       0.00000000       8.00000000 </v>
   </varray>
   <i name="volume">   1800.00000000 </i>
   <varray name="rec_basis" >
    <v>       0.06666667      -0.00000000       0.00000000 </v>
    <v>       0.00000000       0.06666667       0.00000000 </v>
    <v>      -0.00000000      -0.00000000       0.12500000 </v>
   </varray>
  </crystal>
  <varray name="positions" >
   <v>       0.00000000       0.00000000       0.00000000 </v>
   <v>       0.00000000       0.00000000       0.12500000 </v>
   <v>       0.00000000       0.00000000       0.25000000 </v>
   <v>       0.00000000       0.00000000       0.37500000 </v>
   <v>       0.00000000       0.00000000       0.50000000 </v>
   <v>       0.00000000       0.00000000       0.62500000 </v>
   <v>       0.00000000       0.00000000       0.75000000 </v>
   <v>       0.00000000       0.00000000       0.87500000 </v>
  </varray>
 </structure>
 <calculation>
  <scstep>
   <time name="dav">    0.27    0.27</time>
   <time name="total">    0.69    0.69</time>
   <energy>
    <i name="alphaZ">      0.08661929 </i>
    <i name="ewald">    147.63649569 </i>
    <i name="hartreedc">   -186.68144460 </i>
    <i name="XCdc">     18.72137389 </i>
    <i name="pawpsdc">     17.07221949 </i>
    <i name="pawaedc">    -17.14324176 </i>
    <i name="eentropy">     -0.04264938 </i>
    <i name="bandstr">    -75.10983045 </i>
    <i name="atom">     99.56620307 </i>
    <i name="e_fr_energy">      4.10574524 </i>
    <i name="e_wo_entrp">      4.14839462 </i>
    <i name="e_0_energy">      4.12706993 </i>
   </energy>
  </scstep>
  <scstep>
   <time name="dav">    0.28    0.28</time>
   <time name="total">    0.28    0.28</time>
   <energy>
    <i name="e_fr_energy">    -19.44576604 </i>
    <i name="e_wo_entrp">    -19.44345311 </i>
    <i name="e_0_energy">    -19.44460957 </i>
   </energy>
  </scstep>
  <scstep>
   <time name="dav">    0.25    0.25</time>
   <time name="total">    0.25    0.25</time>
   <energy>
    <i name="e_fr_energy">    -22.07656289 </i>
    <i name="e_wo_entrp">    -21.96351149 </i>
    <i name="e_0_energy">    -22.02003719 </i>
   </energy>
  </scstep>
  <scstep>
   <time name="dav">    0.22    0.22</time>
   <time name="total">    0.23    0.23</time>
   <energy>
    <i name="e_fr_energy">    -22.21439799 </i>
    <i name="e_wo_entrp">    -21.98873698 </i>
    <i name="e_0_energy">    -22.10156749 </i>
   </energy>
  </scstep>
  <scstep>
   <time name="dav">    0.26    0.26</time>
   <time name="total">    0.38    0.38</time>
   <energy>
    <i name="e_fr_energy">    -22.21701943 </i>
    <i name="e_wo_entrp">    -21.99134360 </i>
    <i name="e_0_energy">    -22.10418151 </i>
   </energy>
  </scstep>
  <scstep>
   <time name="dav">    0.21    0.21</time>
   <time name="total">    0.76    0.76</time>
   <energy>
    <i name="e_fr_energy">    -21.60785398 </i>
    <i name="e_wo_entrp">    -21.38217815 </i>
    <i name="e_0_energy">    -21.49501606 </i>
   </energy>
  </scstep>
  <scstep>
   <time name="dav">    0.23    0.23</time>
   <time name="total">    0.78    0.78</time>
   <energy>
    <i name="e_fr_energy">    -21.13867806 </i>
    <i name="e_wo_entrp">    -20.91300222 </i>
    <i name="e_0_energy">    -21.02584014 </i>
   </energy>
  </scstep>
  <scstep>
   <time name="dav">    0.22    0.26</time>
   <time name="total">    0.76    0.80</time>
   <energy>
    <i name="e_fr_energy">    -21.13159996 </i>
    <i name="e_wo_entrp">    -20.90592413 </i>
    <i name="e_0_energy">    -21.01876205 </i>
   </energy>
  </scstep>
  <scstep>
   <time name="dav">    0.23    0.23</time>
   <time name="total">    0.79    0.78</time>
   <energy>
    <i name="e_fr_energy">    -21.12850611 </i>
    <i name="e_wo_entrp">    -20.90283028 </i>
    <i name="e_0_energy">    -21.01566820 </i>
   </energy>
  </scstep>
  <scstep>
   <time name="dav">    0.21    0.21</time>
   <time name="total">    0.76    0.76</time>
   <energy>
    <i name="e_fr_energy">    -21.13384477 </i>
    <i name="e_wo_entrp">    -20.90816893 </i>
    <i name="e_0_energy">    -21.02100685 </i>
   </energy>
  </scstep>
  <scstep>
   <time name="dav">    0.22    0.22</time>
   <time name="total">    0.77    0.77</time>
   <energy>
    <i name="e_fr_energy">    -21.13558110 </i>
    <i name="e_wo_entrp">    -20.90990527 </i>
    <i name="e_0_energy">    -21.02274319 </i>
   </energy>
  </scstep>
  <scstep>
   <time name="dav">    0.24    0.24</time>
   <time name="total">    0.78    0.78</time>
   <energy>
    <i name="e_fr_energy">    -21.14091512 </i>
    <i name="e_wo_entrp">    -20.91523929 </i>
    <i name="e_0_energy">    -21.02807720 </i>
   </energy>
  </scstep>
  <scstep>
   <time name="dav">    0.21    0.21</time>
   <time name="total">    0.75    0.75</time>
   <energy>
    <i name="e_fr_energy">    -21.14124305 </i>
    <i name="e_wo_entrp">    -20.91556722 </i>
    <i name="e_0_energy">    -21.02840514 </i>
   </energy>
  </scstep>
  <scstep>
   <time name="dav">    0.21    0.21</time>
   <time name="total">    0.77    0.76</time>
   <energy>
    <i name="e_fr_energy">    -21.14169420 </i>
    <i name="e_wo_entrp">    -20.91601836 </i>
    <i name="e_0_energy">    -21.02885628 </i>
   </energy>
  </scstep>
  <scstep>
   <time name="dav">    0.21    0.23</time>
   <time name="total">    0.76    0.77</time>
   <energy>
    <i name="e_fr_energy">    -21.14214825 </i>
    <i name="e_wo_entrp">    -20.91647241 </i>
    <i name="e_0_energy">    -21.02931033 </i>
   </energy>
  </scstep>
  <scstep>
   <time name="dav">    0.23    0.23</time>
   <time name="total">    0.78    0.78</time>
   <energy>
    <i name="e_fr_energy">    -21.14218587 </i>
    <i name="e_wo_entrp">    -20.91651004 </i>
    <i name="e_0_energy">    -21.02934795 </i>
   </energy>
  </scstep>
  <scstep>
   <time name="dav">    0.21    0.21</time>
   <time name="total">    0.77    0.77</time>
   <energy>
    <i name="e_fr_energy">    -21.14224688 </i>
    <i name="e_wo_entrp">    -20.91657105 </i>
    <i name="e_0_energy">    -21.02940896 </i>
   </energy>
  </scstep>
  <scstep>
   <time name="dav">    0.21    0.21</time>
   <time name="total">    0.76    0.76</time>
   <energy>
    <i name="e_fr_energy">    -21.14225066 </i>
    <i name="e_wo_entrp">    -20.91657482 </i>
    <i name="e_0_energy">    -21.02941274 </i>
   </energy>
  </scstep>
  <scstep>
   <time name="dav">    0.21    0.21</time>
   <time name="total">    0.77    0.77</time>
   <energy>
    <i name="e_fr_energy">    -21.14225841 </i>
    <i name="e_wo_entrp">    -20.91658257 </i>
    <i name="e_0_energy">    -21.02942049 </i>
   </energy>
  </scstep>
  <scstep>
   <time name="dav">    0.21    0.21</time>
   <time name="total">    0.64    0.64</time>
   <energy>
    <i name="alphaZ">      0.08661929 </i>
    <i name="ewald">    147.63649569 </i>
    <i name="hartreedc">   -210.18524414 </i>
    <i name="XCdc">     21.16655174 </i>
    <i name="pawpsdc">     80.33274725 </i>
    <i name="pawaedc">    -80.47357145 </i>
    <i name="eentropy">     -0.22567583 </i>
    <i name="bandstr">    -79.04638494 </i>
    <i name="atom">     99.56620307 </i>
    <i name="e_fr_energy">    -21.14225932 </i>
    <i name="e_wo_entrp">    -20.91658349 </i>
    <i name="e_0_energy">    -21.02942141 </i>
   </energy>
  </scstep>
  <structure>
   <crystal>
    <varray name="basis" >
     <v>      15.00000000       0.00000000       0.00000000 </v>
     <v>       0.00000000      15.00000000       0.00000000 </v>
     <v>       0.00000000       0.00000000       8.00000000 </v>
    </varray>
    <i name="volume">   1800.00000000 </i>
    <varray name="rec_basis" >
     <v>       0.06666667      -0.00000000       0.00000000 </v>
     <v>       0.00000000       0.06666667       0.00000000 </v>
     <v>      -0.00000000      -0.00000000       0.12500000 </v>
    </varray>
   </crystal>
   <varray name="positions" >
    <v>       0.00000000       0.00000000       0.00000000 </v>
    <v>       0.00000000       0.00000000       0.12500000 </v>
    <v>       0.00000000       0.00000000       0.25000000 </v>
    <v>       0.00000000       0.00000000       0.37500000 </v>
    <v>       0.00000000       0.00000000       0.50000000 </v>
    <v>       0.00000000       0.00000000       0.62500000 </v>
    <v>       0.00000000       0.00000000       0.75000000 </v>
    <v>       0.00000000       0.00000000       0.87500000 </v>
   </varray>
  </structure>
  <varray name="forces" >
   <v>       0.00000000       0.00000000       0.00000000 </v>
   <v>      -0.00000000       0.00000000      -0.00000000 </v>
   <v>       0.00000000      -0.00000000       0.00000000 </v>
   <v>      -0.00000000      -0.00000000       0.00000000 </v>
   <v>       0.00000000       0.00000000       0.00000000 </v>
   <v>       0.00000000       0.00000000      -0.00000000 </v>
   <v>      -0.00000000      -0.00000000      -0.00000000 </v>
   <v>      -0.00000000       0.00000000       0.00000000 </v>
  </varray>
  <varray name="stress" >
   <v>      -1.14571369      -0.00000000      -0.00000000 </v>
   <v>      -0.00000000      -1.14571369      -0.00000000 </v>
   <v>      -0.00000000      -0.00000000       3.96238523 </v>
  </varray>
  <energy>
   <i name="e_fr_energy">    -21.14225932 </i>
   <i name="e_wo_entrp">    -21.02942141 </i>
   <i name="e_0_energy">     -0.22567583 </i>
  </energy>
  <time name="totalsc">   14.02   14.07</time>
  <eigenvalues>
   <array>
    <dimension dim="1">band</dimension>
    <dimension dim="2">kpoint</dimension>
    <dimension dim="3">spin</dimension>
    <field>eigene</field>
    <field>occ</field>
    <set>
     <set comment="spin 1">
      <set comment="kpoint 1">
       <r>  -13.3648    1.0000 </r>
       <r>  -11.0394    1.0000 </r>
       <r>  -11.0394    1.0000 </r>
       <r>   -4.0795    0.5000 </r>
       <r>   -4.0795    0.5000 </r>
       <r>   -0.1310    0.0000 </r>
       <r>   -0.1310    0.0000 </r>
       <r>   -0.1214    0.0000 </r>
       <r>    0.5670    0.0000 </r>
       <r>    0.5919    0.0000 </r>
       <r>    0.9336    0.0000 </r>
       <r>    0.9336    0.0000 </r>
      </set>
     </set>
     <set comment="spin 2">
      <set comment="kpoint 1">
       <r>  -13.3648    1.0000 </r>
       <r>  -11.0394    1.0000 </r>
       <r>  -11.0394    1.0000 </r>
       <r>   -4.0795    0.5000 </r>
       <r>   -4.0795    0.5000 </r>
       <r>   -0.1315    0.0000 </r>
       <r>   -0.1315    0.0000 </r>
       <r>   -0.1218    0.0000 </r>
       <r>    0.5670    0.0000 </r>
       <r>    0.5925    0.0000 </r>
       <r>    0.9333    0.0000 </r>
       <r>    0.9333    0.0000 </r>
      </set>
     </set>
    </set>
   </array>
  </eigenvalues>
  <separator name="orbital magnetization" >
   <v name="MAGDIPOLOUT">      0.00000000      0.00000000      0.00000000</v>
  </separator>
  <dos>
   <i name="efermi">     -4.07953498 </i>
   <total>
    <array>
     <dimension dim="1">gridpoints</dimension>
     <dimension dim="2">spin</dimension>
     <field>energy</field>
     <field>total</field>
     <field>integrated</field>
     <set>
      <set comment="spin 1">
       <r>   -15.3648     0.0000     0.0000 </r>
       <r>   -15.3038     0.0000     0.0000 </r>
       <r>   -15.2428     0.0000     0.0000 </r>
       <r>   -15.1818     0.0000     0.0000 </r>
       <r>   -15.1208     0.0000     0.0000 </r>
       <r>   -15.0598     0.0000     0.0000 </r>
       <r>   -14.9988     0.0000     0.0000 </r>
       <r>   -14.9378     0.0000     0.0000 </r>
       <r>   -14.8769     0.0000     0.0000 </r>
       <r>   -14.8159     0.0000     0.0000 </r>
       <r>   -14.7549     0.0000     0.0000 </r>
       <r>   -14.6939     0.0000     0.0000 </r>
       <r>   -14.6329     0.0000     0.0000 </r>
       <r>   -14.5719     0.0000     0.0000 </r>
       <r>   -14.5109     0.0000     0.0000 </r>
       <r>   -14.4499     0.0000     0.0000 </r>
       <r>   -14.3889     0.0000     0.0000 </r>
       <r>   -14.3279     0.0000     0.0000 </r>
       <r>   -14.2669     0.0000     0.0000 </r>
       <r>   -14.2059     0.0000     0.0000 </r>
       <r>   -14.1449     0.0000     0.0000 </r>
       <r>   -14.0839     0.0000     0.0000 </r>
       <r>   -14.0229     0.0000     0.0000 </r>
       <r>   -13.9619     0.0003     0.0000 </r>
       <r>   -13.9009     0.0021     0.0002 </r>
       <r>   -13.8399     0.0103     0.0008 </r>
       <r>   -13.7789     0.0431     0.0034 </r>
       <r>   -13.7180     0.1494     0.0125 </r>
       <r>   -13.6570     0.4316     0.0388 </r>
       <r>   -13.5960     1.0379     0.1022 </r>
       <r>   -13.5350     2.0779     0.2289 </r>
       <r>   -13.4740     3.4638     0.4402 </r>
       <r>   -13.4130     4.8074     0.7334 </r>
       <r>   -13.3520     5.5556     1.0723 </r>
       <r>   -13.2910     5.3457     1.3983 </r>
       <r>   -13.2300     4.2829     1.6596 </r>
       <r>   -13.1690     2.8571     1.8338 </r>
       <r>   -13.1080     1.5869     1.9306 </r>
       <r>   -13.0470     0.7338     1.9754 </r>
       <r>   -12.9860     0.2825     1.9926 </r>
       <r>   -12.9250     0.0906     1.9981 </r>
       <r>   -12.8640     0.0242     1.9996 </r>
       <r>   -12.8030     0.0054     1.9999 </r>
       <r>   -12.7420     0.0010     2.0000 </r>
       <r>   -12.6810     0.0002     2.0000 </r>
       <r>   -12.6201     0.0000     2.0000 </r>
       <r>   -12.5591     0.0000     2.0000 </r>
       <r>   -12.4981     0.0000     2.0000 </r>
       <r>   -12.4371     0.0000     2.0000 </r>
       <r>   -12.3761     0.0000     2.0000 </r>
       <r>   -12.3151     0.0000     2.0000 </r>
       <r>   -12.2541     0.0000     2.0000 </r>
       <r>   -12.1931     0.0000     2.0000 </r>
       <r>   -12.1321     0.0000     2.0000 </r>
       <r>   -12.0711     0.0000     2.0000 </r>
       <r>   -12.0101     0.0000     2.0000 </r>
       <r>   -11.9491     0.0000     2.0000 </r>
       <r>   -11.8881     0.0000     2.0000 </r>
       <r>   -11.8271     0.0000     2.0000 </r>
       <r>   -11.7661     0.0000     2.0000 </r>
       <r>   -11.7051     0.0001     2.0000 </r>
       <r>   -11.6441     0.0005     2.0000 </r>
       <r>   -11.5831     0.0033     2.0002 </r>
       <r>   -11.5221     0.0171     2.0013 </r>
       <r>   -11.4612     0.0728     2.0057 </r>
       <r>   -11.4002     0.2586     2.0215 </r>
       <r>   -11.3392     0.7641     2.0681 </r>
       <r>   -11.2782     1.8797     2.1828 </r>
       <r>   -11.2172     3.8502     2.4176 </r>
       <r>   -11.1562     6.5660     2.8181 </r>
       <r>   -11.0952     9.3231     3.3867 </r>
       <r>   -11.0342    11.0224     4.0591 </r>
       <r>   -10.9732    10.8505     4.7209 </r>
       <r>   -10.9122     8.8937     5.2633 </r>
       <r>   -10.8512     6.0696     5.6336 </r>
       <r>   -10.7902     3.4490     5.8439 </r>
       <r>   -10.7292     1.6317     5.9435 </r>
       <r>   -10.6682     0.6427     5.9827 </r>
       <r>   -10.6072     0.2108     5.9955 </r>
       <r>   -10.5462     0.0575     5.9990 </r>
       <r>   -10.4852     0.0131     5.9998 </r>
       <r>   -10.4242     0.0025     6.0000 </r>
       <r>   -10.3632     0.0004     6.0000 </r>
       <r>   -10.3023     0.0001     6.0000 </r>
       <r>   -10.2413     0.0000     6.0000 </r>
       <r>   -10.1803     0.0000     6.0000 </r>
       <r>   -10.1193     0.0000     6.0000 </r>
       <r>   -10.0583     0.0000     6.0000 </r>
       <r>    -9.9973     0.0000     6.0000 </r>
       <r>    -9.9363     0.0000     6.0000 </r>
       <r>    -9.8753     0.0000     6.0000 </r>
       <r>    -9.8143     0.0000     6.0000 </r>
       <r>    -9.7533     0.0000     6.0000 </r>
       <r>    -9.6923     0.0000     6.0000 </r>
       <r>    -9.6313     0.0000     6.0000 </r>
       <r>    -9.5703     0.0000     6.0000 </r>
       <r>    -9.5093     0.0000     6.0000 </r>
       <r>    -9.4483     0.0000     6.0000 </r>
       <r>    -9.3873     0.0000     6.0000 </r>
       <r>    -9.3263     0.0000     6.0000 </r>
       <r>    -9.2653     0.0000     6.0000 </r>
       <r>    -9.2043     0.0000     6.0000 </r>
       <r>    -9.1434     0.0000     6.0000 </r>
       <r>    -9.0824     0.0000     6.0000 </r>
       <r>    -9.0214     0.0000     6.0000 </r>
       <r>    -8.9604     0.0000     6.0000 </r>
       <r>    -8.8994     0.0000     6.0000 </r>
       <r>    -8.8384     0.0000     6.0000 </r>
       <r>    -8.7774     0.0000     6.0000 </r>
       <r>    -8.7164     0.0000     6.0000 </r>
       <r>    -8.6554     0.0000     6.0000 </r>
       <r>    -8.5944     0.0000     6.0000 </r>
       <r>    -8.5334     0.0000     6.0000 </r>
       <r>    -8.4724     0.0000     6.0000 </r>
       <r>    -8.4114     0.0000     6.0000 </r>
       <r>    -8.3504     0.0000     6.0000 </r>
       <r>    -8.2894     0.0000     6.0000 </r>
       <r>    -8.2284     0.0000     6.0000 </r>
       <r>    -8.1674     0.0000     6.0000 </r>
       <r>    -8.1064     0.0000     6.0000 </r>
       <r>    -8.0454     0.0000     6.0000 </r>
       <r>    -7.9845     0.0000     6.0000 </r>
       <r>    -7.9235     0.0000     6.0000 </r>
       <r>    -7.8625     0.0000     6.0000 </r>
       <r>    -7.8015     0.0000     6.0000 </r>
       <r>    -7.7405     0.0000     6.0000 </r>
       <r>    -7.6795     0.0000     6.0000 </r>
       <r>    -7.6185     0.0000     6.0000 </r>
       <r>    -7.5575     0.0000     6.0000 </r>
       <r>    -7.4965     0.0000     6.0000 </r>
       <r>    -7.4355     0.0000     6.0000 </r>
       <r>    -7.3745     0.0000     6.0000 </r>
       <r>    -7.3135     0.0000     6.0000 </r>
       <r>    -7.2525     0.0000     6.0000 </r>
       <r>    -7.1915     0.0000     6.0000 </r>
       <r>    -7.1305     0.0000     6.0000 </r>
       <r>    -7.0695     0.0000     6.0000 </r>
       <r>    -7.0085     0.0000     6.0000 </r>
       <r>    -6.9475     0.0000     6.0000 </r>
       <r>    -6.8865     0.0000     6.0000 </r>
       <r>    -6.8256     0.0000     6.0000 </r>
       <r>    -6.7646     0.0000     6.0000 </r>
       <r>    -6.7036     0.0000     6.0000 </r>
       <r>    -6.6426     0.0000     6.0000 </r>
       <r>    -6.5816     0.0000     6.0000 </r>
       <r>    -6.5206     0.0000     6.0000 </r>
       <r>    -6.4596     0.0000     6.0000 </r>
       <r>    -6.3986     0.0000     6.0000 </r>
       <r>    -6.3376     0.0000     6.0000 </r>
       <r>    -6.2766     0.0000     6.0000 </r>
       <r>    -6.2156     0.0000     6.0000 </r>
       <r>    -6.1546     0.0000     6.0000 </r>
       <r>    -6.0936     0.0000     6.0000 </r>
       <r>    -6.0326     0.0000     6.0000 </r>
       <r>    -5.9716     0.0000     6.0000 </r>
       <r>    -5.9106     0.0000     6.0000 </r>
       <r>    -5.8496     0.0000     6.0000 </r>
       <r>    -5.7886     0.0000     6.0000 </r>
       <r>    -5.7277     0.0000     6.0000 </r>
       <r>    -5.6667     0.0000     6.0000 </r>
       <r>    -5.6057     0.0000     6.0000 </r>
       <r>    -5.5447     0.0000     6.0000 </r>
       <r>    -5.4837     0.0000     6.0000 </r>
       <r>    -5.4227     0.0000     6.0000 </r>
       <r>    -5.3617     0.0000     6.0000 </r>
       <r>    -5.3007     0.0000     6.0000 </r>
       <r>    -5.2397     0.0000     6.0000 </r>
       <r>    -5.1787     0.0000     6.0000 </r>
       <r>    -5.1177     0.0000     6.0000 </r>
       <r>    -5.0567     0.0000     6.0000 </r>
       <r>    -4.9957     0.0000     6.0000 </r>
       <r>    -4.9347     0.0000     6.0000 </r>
       <r>    -4.8737     0.0000     6.0000 </r>
       <r>    -4.8127     0.0000     6.0000 </r>
       <r>    -4.7517     0.0001     6.0000 </r>
       <r>    -4.6907     0.0004     6.0000 </r>
       <r>    -4.6297     0.0028     6.0002 </r>
       <r>    -4.5688     0.0145     6.0011 </r>
       <r>    -4.5078     0.0630     6.0049 </r>
       <r>    -4.4468     0.2279     6.0188 </r>
       <r>    -4.3858     0.6868     6.0607 </r>
       <r>    -4.3248     1.7229     6.1658 </r>
       <r>    -4.2638     3.5985     6.3853 </r>
       <r>    -4.2028     6.2575     6.7670 </r>
       <r>    -4.1418     9.0601     7.3196 </r>
       <r>    -4.0808    10.9224     7.9858 </r>
       <r>    -4.0198    10.9638     8.6545 </r>
       <r>    -3.9588     9.1635     9.2135 </r>
       <r>    -3.8978     6.3769     9.6024 </r>
       <r>    -3.8368     3.6949     9.8278 </r>
       <r>    -3.7758     1.7825     9.9365 </r>
       <r>    -3.7148     0.7160     9.9802 </r>
       <r>    -3.6538     0.2394     9.9948 </r>
       <r>    -3.5928     0.0666     9.9988 </r>
       <r>    -3.5318     0.0154     9.9998 </r>
       <r>    -3.4708     0.0030    10.0000 </r>
       <r>    -3.4099     0.0005    10.0000 </r>
       <r>    -3.3489     0.0001    10.0000 </r>
       <r>    -3.2879     0.0000    10.0000 </r>
       <r>    -3.2269     0.0000    10.0000 </r>
       <r>    -3.1659     0.0000    10.0000 </r>
       <r>    -3.1049     0.0000    10.0000 </r>
       <r>    -3.0439     0.0000    10.0000 </r>
       <r>    -2.9829     0.0000    10.0000 </r>
       <r>    -2.9219     0.0000    10.0000 </r>
       <r>    -2.8609     0.0000    10.0000 </r>
       <r>    -2.7999     0.0000    10.0000 </r>
       <r>    -2.7389     0.0000    10.0000 </r>
       <r>    -2.6779     0.0000    10.0000 </r>
       <r>    -2.6169     0.0000    10.0000 </r>
       <r>    -2.5559     0.0000    10.0000 </r>
       <r>    -2.4949     0.0000    10.0000 </r>
       <r>    -2.4339     0.0000    10.0000 </r>
       <r>    -2.3729     0.0000    10.0000 </r>
       <r>    -2.3119     0.0000    10.0000 </r>
       <r>    -2.2510     0.0000    10.0000 </r>
       <r>    -2.1900     0.0000    10.0000 </r>
       <r>    -2.1290     0.0000    10.0000 </r>
       <r>    -2.0680     0.0000    10.0000 </r>
       <r>    -2.0070     0.0000    10.0000 </r>
       <r>    -1.9460     0.0000    10.0000 </r>
       <r>    -1.8850     0.0000    10.0000 </r>
       <r>    -1.8240     0.0000    10.0000 </r>
       <r>    -1.7630     0.0000    10.0000 </r>
       <r>    -1.7020     0.0000    10.0000 </r>
       <r>    -1.6410     0.0000    10.0000 </r>
       <r>    -1.5800     0.0000    10.0000 </r>
       <r>    -1.5190     0.0000    10.0000 </r>
       <r>    -1.4580     0.0000    10.0000 </r>
       <r>    -1.3970     0.0000    10.0000 </r>
       <r>    -1.3360     0.0000    10.0000 </r>
       <r>    -1.2750     0.0000    10.0000 </r>
       <r>    -1.2140     0.0000    10.0000 </r>
       <r>    -1.1530     0.0000    10.0000 </r>
       <r>    -1.0921     0.0000    10.0000 </r>
       <r>    -1.0311     0.0000    10.0000 </r>
       <r>    -0.9701     0.0000    10.0000 </r>
       <r>    -0.9091     0.0000    10.0000 </r>
       <r>    -0.8481     0.0000    10.0000 </r>
       <r>    -0.7871     0.0001    10.0000 </r>
       <r>    -0.7261     0.0010    10.0001 </r>
       <r>    -0.6651     0.0060    10.0004 </r>
       <r>    -0.6041     0.0303    10.0023 </r>
       <r>    -0.5431     0.1265    10.0100 </r>
       <r>    -0.4821     0.4399    10.0368 </r>
       <r>    -0.4211     1.2738    10.1145 </r>
       <r>    -0.3601     3.0710    10.3018 </r>
       <r>    -0.2991     6.1656    10.6779 </r>
       <r>    -0.2381    10.3082    11.3067 </r>
       <r>    -0.1771    14.3521    12.1821 </r>
       <r>    -0.1161    16.6411    13.1971 </r>
       <r>    -0.0551    16.0691    14.1772 </r>
       <r>     0.0059    12.9235    14.9655 </r>
       <r>     0.0668     8.6620    15.4938 </r>
       <r>     0.1278     4.8643    15.7905 </r>
       <r>     0.1888     2.3878    15.9362 </r>
       <r>     0.2498     1.3358    16.0176 </r>
       <r>     0.3108     1.5323    16.1111 </r>
       <r>     0.3718     2.8673    16.2860 </r>
       <r>     0.4328     5.2089    16.6037 </r>
       <r>     0.4938     8.0733    17.0961 </r>
       <r>     0.5548    10.5366    17.7388 </r>
       <r>     0.6158    11.7102    18.4531 </r>
       <r>     0.6768    11.4696    19.1527 </r>
       <r>     0.7378    10.6580    19.8027 </r>
       <r>     0.7988    10.3835    20.4361 </r>
       <r>     0.8598    10.9947    21.1067 </r>
       <r>     0.9208    11.7448    21.8231 </r>
       <r>     0.9818    11.4920    22.5240 </r>
       <r>     1.0428     9.7296    23.1175 </r>
       <r>     1.1038     6.9564    23.5418 </r>
       <r>     1.1647     4.1619    23.7956 </r>
       <r>     1.2257     2.0768    23.9223 </r>
       <r>     1.2867     0.8634    23.9750 </r>
       <r>     1.3477     0.2989    23.9932 </r>
       <r>     1.4087     0.0861    23.9984 </r>
       <r>     1.4697     0.0207    23.9997 </r>
       <r>     1.5307     0.0041    24.0000 </r>
       <r>     1.5917     0.0007    24.0000 </r>
       <r>     1.6527     0.0001    24.0000 </r>
       <r>     1.7137     0.0000    24.0000 </r>
       <r>     1.7747     0.0000    24.0000 </r>
       <r>     1.8357     0.0000    24.0000 </r>
       <r>     1.8967     0.0000    24.0000 </r>
       <r>     1.9577     0.0000    24.0000 </r>
       <r>     2.0187     0.0000    24.0000 </r>
       <r>     2.0797     0.0000    24.0000 </r>
       <r>     2.1407     0.0000    24.0000 </r>
       <r>     2.2017     0.0000    24.0000 </r>
       <r>     2.2627     0.0000    24.0000 </r>
       <r>     2.3236     0.0000    24.0000 </r>
       <r>     2.3846     0.0000    24.0000 </r>
       <r>     2.4456     0.0000    24.0000 </r>
       <r>     2.5066     0.0000    24.0000 </r>
       <r>     2.5676     0.0000    24.0000 </r>
       <r>     2.6286     0.0000    24.0000 </r>
       <r>     2.6896     0.0000    24.0000 </r>
       <r>     2.7506     0.0000    24.0000 </r>
       <r>     2.8116     0.0000    24.0000 </r>
       <r>     2.8726     0.0000    24.0000 </r>
       <r>     2.9336     0.0000    24.0000 </r>
      </set>
      <set comment="spin 2">
       <r>   -15.3648     0.0000     0.0000 </r>
       <r>   -15.3038     0.0000     0.0000 </r>
       <r>   -15.2428     0.0000     0.0000 </r>
       <r>   -15.1818     0.0000     0.0000 </r>
       <r>   -15.1208     0.0000     0.0000 </r>
       <r>   -15.0598     0.0000     0.0000 </r>
       <r>   -14.9988     0.0000     0.0000 </r>
       <r>   -14.9378     0.0000     0.0000 </r>
       <r>   -14.8769     0.0000     0.0000 </r>
       <r>   -14.8159     0.0000     0.0000 </r>
       <r>   -14.7549     0.0000     0.0000 </r>
       <r>   -14.6939     0.0000     0.0000 </r>
       <r>   -14.6329     0.0000     0.0000 </r>
       <r>   -14.5719     0.0000     0.0000 </r>
       <r>   -14.5109     0.0000     0.0000 </r>
       <r>   -14.4499     0.0000     0.0000 </r>
       <r>   -14.3889     0.0000     0.0000 </r>
       <r>   -14.3279     0.0000     0.0000 </r>
       <r>   -14.2669     0.0000     0.0000 </r>
       <r>   -14.2059     0.0000     0.0000 </r>
       <r>   -14.1449     0.0000     0.0000 </r>
       <r>   -14.0839     0.0000     0.0000 </r>
       <r>   -14.0229     0.0000     0.0000 </r>
       <r>   -13.9619     0.0003     0.0000 </r>
       <r>   -13.9009     0.0021     0.0002 </r>
       <r>   -13.8399     0.0103     0.0008 </r>
       <r>   -13.7789     0.0431     0.0034 </r>
       <r>   -13.7180     0.1494     0.0125 </r>
       <r>   -13.6570     0.4316     0.0388 </r>
       <r>   -13.5960     1.0379     0.1022 </r>
       <r>   -13.5350     2.0779     0.2289 </r>
       <r>   -13.4740     3.4638     0.4402 </r>
       <r>   -13.4130     4.8074     0.7334 </r>
       <r>   -13.3520     5.5556     1.0723 </r>
       <r>   -13.2910     5.3457     1.3983 </r>
       <r>   -13.2300     4.2829     1.6596 </r>
       <r>   -13.1690     2.8571     1.8338 </r>
       <r>   -13.1080     1.5869     1.9306 </r>
       <r>   -13.0470     0.7338     1.9754 </r>
       <r>   -12.9860     0.2825     1.9926 </r>
       <r>   -12.9250     0.0906     1.9981 </r>
       <r>   -12.8640     0.0242     1.9996 </r>
       <r>   -12.8030     0.0054     1.9999 </r>
       <r>   -12.7420     0.0010     2.0000 </r>
       <r>   -12.6810     0.0002     2.0000 </r>
       <r>   -12.6201     0.0000     2.0000 </r>
       <r>   -12.5591     0.0000     2.0000 </r>
       <r>   -12.4981     0.0000     2.0000 </r>
       <r>   -12.4371     0.0000     2.0000 </r>
       <r>   -12.3761     0.0000     2.0000 </r>
       <r>   -12.3151     0.0000     2.0000 </r>
       <r>   -12.2541     0.0000     2.0000 </r>
       <r>   -12.1931     0.0000     2.0000 </r>
       <r>   -12.1321     0.0000     2.0000 </r>
       <r>   -12.0711     0.0000     2.0000 </r>
       <r>   -12.0101     0.0000     2.0000 </r>
       <r>   -11.9491     0.0000     2.0000 </r>
       <r>   -11.8881     0.0000     2.0000 </r>
       <r>   -11.8271     0.0000     2.0000 </r>
       <r>   -11.7661     0.0000     2.0000 </r>
       <r>   -11.7051     0.0001     2.0000 </r>
       <r>   -11.6441     0.0005     2.0000 </r>
       <r>   -11.5831     0.0033     2.0002 </r>
       <r>   -11.5221     0.0171     2.0013 </r>
       <r>   -11.4612     0.0728     2.0057 </r>
       <r>   -11.4002     0.2586     2.0215 </r>
       <r>   -11.3392     0.7641     2.0681 </r>
       <r>   -11.2782     1.8797     2.1828 </r>
       <r>   -11.2172     3.8502     2.4176 </r>
       <r>   -11.1562     6.5660     2.8181 </r>
       <r>   -11.0952     9.3231     3.3867 </r>
       <r>   -11.0342    11.0224     4.0591 </r>
       <r>   -10.9732    10.8505     4.7209 </r>
       <r>   -10.9122     8.8937     5.2633 </r>
       <r>   -10.8512     6.0696     5.6336 </r>
       <r>   -10.7902     3.4490     5.8439 </r>
       <r>   -10.7292     1.6317     5.9435 </r>
       <r>   -10.6682     0.6427     5.9827 </r>
       <r>   -10.6072     0.2108     5.9955 </r>
       <r>   -10.5462     0.0575     5.9990 </r>
       <r>   -10.4852     0.0131     5.9998 </r>
       <r>   -10.4242     0.0025     6.0000 </r>
       <r>   -10.3632     0.0004     6.0000 </r>
       <r>   -10.3023     0.0001     6.0000 </r>
       <r>   -10.2413     0.0000     6.0000 </r>
       <r>   -10.1803     0.0000     6.0000 </r>
       <r>   -10.1193     0.0000     6.0000 </r>
       <r>   -10.0583     0.0000     6.0000 </r>
       <r>    -9.9973     0.0000     6.0000 </r>
       <r>    -9.9363     0.0000     6.0000 </r>
       <r>    -9.8753     0.0000     6.0000 </r>
       <r>    -9.8143     0.0000     6.0000 </r>
       <r>    -9.7533     0.0000     6.0000 </r>
       <r>    -9.6923     0.0000     6.0000 </r>
       <r>    -9.6313     0.0000     6.0000 </r>
       <r>    -9.5703     0.0000     6.0000 </r>
       <r>    -9.5093     0.0000     6.0000 </r>
       <r>    -9.4483     0.0000     6.0000 </r>
       <r>    -9.3873     0.0000     6.0000 </r>
       <r>    -9.3263     0.0000     6.0000 </r>
       <r>    -9.2653     0.0000     6.0000 </r>
       <r>    -9.2043     0.0000     6.0000 </r>
       <r>    -9.1434     0.0000     6.0000 </r>
       <r>    -9.0824     0.0000     6.0000 </r>
       <r>    -9.0214     0.0000     6.0000 </r>
       <r>    -8.9604     0.0000     6.0000 </r>
       <r>    -8.8994     0.0000     6.0000 </r>
       <r>    -8.8384     0.0000     6.0000 </r>
       <r>    -8.7774     0.0000     6.0000 </r>
       <r>    -8.7164     0.0000     6.0000 </r>
       <r>    -8.6554     0.0000     6.0000 </r>
       <r>    -8.5944     0.0000     6.0000 </r>
       <r>    -8.5334     0.0000     6.0000 </r>
       <r>    -8.4724     0.0000     6.0000 </r>
       <r>    -8.4114     0.0000     6.0000 </r>
       <r>    -8.3504     0.0000     6.0000 </r>
       <r>    -8.2894     0.0000     6.0000 </r>
       <r>    -8.2284     0.0000     6.0000 </r>
       <r>    -8.1674     0.0000     6.0000 </r>
       <r>    -8.1064     0.0000     6.0000 </r>
       <r>    -8.0454     0.0000     6.0000 </r>
       <r>    -7.9845     0.0000     6.0000 </r>
       <r>    -7.9235     0.0000     6.0000 </r>
       <r>    -7.8625     0.0000     6.0000 </r>
       <r>    -7.8015     0.0000     6.0000 </r>
       <r>    -7.7405     0.0000     6.0000 </r>
       <r>    -7.6795     0.0000     6.0000 </r>
       <r>    -7.6185     0.0000     6.0000 </r>
       <r>    -7.5575     0.0000     6.0000 </r>
       <r>    -7.4965     0.0000     6.0000 </r>
       <r>    -7.4355     0.0000     6.0000 </r>
       <r>    -7.3745     0.0000     6.0000 </r>
       <r>    -7.3135     0.0000     6.0000 </r>
       <r>    -7.2525     0.0000     6.0000 </r>
       <r>    -7.1915     0.0000     6.0000 </r>
       <r>    -7.1305     0.0000     6.0000 </r>
       <r>    -7.0695     0.0000     6.0000 </r>
       <r>    -7.0085     0.0000     6.0000 </r>
       <r>    -6.9475     0.0000     6.0000 </r>
       <r>    -6.8865     0.0000     6.0000 </r>
       <r>    -6.8256     0.0000     6.0000 </r>
       <r>    -6.7646     0.0000     6.0000 </r>
       <r>    -6.7036     0.0000     6.0000 </r>
       <r>    -6.6426     0.0000     6.0000 </r>
       <r>    -6.5816     0.0000     6.0000 </r>
       <r>    -6.5206     0.0000     6.0000 </r>
       <r>    -6.4596     0.0000     6.0000 </r>
       <r>    -6.3986     0.0000     6.0000 </r>
       <r>    -6.3376     0.0000     6.0000 </r>
       <r>    -6.2766     0.0000     6.0000 </r>
       <r>    -6.2156     0.0000     6.0000 </r>
       <r>    -6.1546     0.0000     6.0000 </r>
       <r>    -6.0936     0.0000     6.0000 </r>
       <r>    -6.0326     0.0000     6.0000 </r>
       <r>    -5.9716     0.0000     6.0000 </r>
       <r>    -5.9106     0.0000     6.0000 </r>
       <r>    -5.8496     0.0000     6.0000 </r>
       <r>    -5.7886     0.0000     6.0000 </r>
       <r>    -5.7277     0.0000     6.0000 </r>
       <r>    -5.6667     0.0000     6.0000 </r>
       <r>    -5.6057     0.0000     6.0000 </r>
       <r>    -5.5447     0.0000     6.0000 </r>
       <r>    -5.4837     0.0000     6.0000 </r>
       <r>    -5.4227     0.0000     6.0000 </r>
       <r>    -5.3617     0.0000     6.0000 </r>
       <r>    -5.3007     0.0000     6.0000 </r>
       <r>    -5.2397     0.0000     6.0000 </r>
       <r>    -5.1787     0.0000     6.0000 </r>
       <r>    -5.1177     0.0000     6.0000 </r>
       <r>    -5.0567     0.0000     6.0000 </r>
       <r>    -4.9957     0.0000     6.0000 </r>
       <r>    -4.9347     0.0000     6.0000 </r>
       <r>    -4.8737     0.0000     6.0000 </r>
       <r>    -4.8127     0.0000     6.0000 </r>
       <r>    -4.7517     0.0001     6.0000 </r>
       <r>    -4.6907     0.0004     6.0000 </r>
       <r>    -4.6297     0.0028     6.0002 </r>
       <r>    -4.5688     0.0145     6.0011 </r>
       <r>    -4.5078     0.0630     6.0049 </r>
       <r>    -4.4468     0.2279     6.0188 </r>
       <r>    -4.3858     0.6868     6.0607 </r>
       <r>    -4.3248     1.7229     6.1658 </r>
       <r>    -4.2638     3.5985     6.3853 </r>
       <r>    -4.2028     6.2575     6.7670 </r>
       <r>    -4.1418     9.0601     7.3196 </r>
       <r>    -4.0808    10.9224     7.9858 </r>
       <r>    -4.0198    10.9638     8.6545 </r>
       <r>    -3.9588     9.1635     9.2135 </r>
       <r>    -3.8978     6.3769     9.6024 </r>
       <r>    -3.8368     3.6949     9.8278 </r>
       <r>    -3.7758     1.7825     9.9365 </r>
       <r>    -3.7148     0.7160     9.9802 </r>
       <r>    -3.6538     0.2394     9.9948 </r>
       <r>    -3.5928     0.0666     9.9988 </r>
       <r>    -3.5318     0.0154     9.9998 </r>
       <r>    -3.4708     0.0030    10.0000 </r>
       <r>    -3.4099     0.0005    10.0000 </r>
       <r>    -3.3489     0.0001    10.0000 </r>
       <r>    -3.2879     0.0000    10.0000 </r>
       <r>    -3.2269     0.0000    10.0000 </r>
       <r>    -3.1659     0.0000    10.0000 </r>
       <r>    -3.1049     0.0000    10.0000 </r>
       <r>    -3.0439     0.0000    10.0000 </r>
       <r>    -2.9829     0.0000    10.0000 </r>
       <r>    -2.9219     0.0000    10.0000 </r>
       <r>    -2.8609     0.0000    10.0000 </r>
       <r>    -2.7999     0.0000    10.0000 </r>
       <r>    -2.7389     0.0000    10.0000 </r>
       <r>    -2.6779     0.0000    10.0000 </r>
       <r>    -2.6169     0.0000    10.0000 </r>
       <r>    -2.5559     0.0000    10.0000 </r>
       <r>    -2.4949     0.0000    10.0000 </r>
       <r>    -2.4339     0.0000    10.0000 </r>
       <r>    -2.3729     0.0000    10.0000 </r>
       <r>    -2.3119     0.0000    10.0000 </r>
       <r>    -2.2510     0.0000    10.0000 </r>
       <r>    -2.1900     0.0000    10.0000 </r>
       <r>    -2.1290     0.0000    10.0000 </r>
       <r>    -2.0680     0.0000    10.0000 </r>
       <r>    -2.0070     0.0000    10.0000 </r>
       <r>    -1.9460     0.0000    10.0000 </r>
       <r>    -1.8850     0.0000    10.0000 </r>
       <r>    -1.8240     0.0000    10.0000 </r>
       <r>    -1.7630     0.0000    10.0000 </r>
       <r>    -1.7020     0.0000    10.0000 </r>
       <r>    -1.6410     0.0000    10.0000 </r>
       <r>    -1.5800     0.0000    10.0000 </r>
       <r>    -1.5190     0.0000    10.0000 </r>
       <r>    -1.4580     0.0000    10.0000 </r>
       <r>    -1.3970     0.0000    10.0000 </r>
       <r>    -1.3360     0.0000    10.0000 </r>
       <r>    -1.2750     0.0000    10.0000 </r>
       <r>    -1.2140     0.0000    10.0000 </r>
       <r>    -1.1530     0.0000    10.0000 </r>
       <r>    -1.0921     0.0000    10.0000 </r>
       <r>    -1.0311     0.0000    10.0000 </r>
       <r>    -0.9701     0.0000    10.0000 </r>
       <r>    -0.9091     0.0000    10.0000 </r>
       <r>    -0.8481     0.0000    10.0000 </r>
       <r>    -0.7871     0.0001    10.0000 </r>
       <r>    -0.7261     0.0010    10.0001 </r>
       <r>    -0.6651     0.0061    10.0004 </r>
       <r>    -0.6041     0.0306    10.0023 </r>
       <r>    -0.5431     0.1277    10.0101 </r>
       <r>    -0.4821     0.4436    10.0372 </r>
       <r>    -0.4211     1.2827    10.1154 </r>
       <r>    -0.3601     3.0885    10.3038 </r>
       <r>    -0.2991     6.1926    10.6815 </r>
       <r>    -0.2381    10.3396    11.3122 </r>
       <r>    -0.1771    14.3768    12.1891 </r>
       <r>    -0.1161    16.6477    13.2045 </r>
       <r>    -0.0551    16.0543    14.1837 </r>
       <r>     0.0059    12.8946    14.9702 </r>
       <r>     0.0668     8.6313    15.4967 </r>
       <r>     0.1278     4.8407    15.7919 </r>
       <r>     0.1888     2.3733    15.9367 </r>
       <r>     0.2498     1.3276    16.0177 </r>
       <r>     0.3108     1.5258    16.1107 </r>
       <r>     0.3718     2.8588    16.2851 </r>
       <r>     0.4328     5.1974    16.6021 </r>
       <r>     0.4938     8.0609    17.0938 </r>
       <r>     0.5548    10.5285    17.7360 </r>
       <r>     0.6158    11.7117    18.4503 </r>
       <r>     0.6768    11.4824    19.1507 </r>
       <r>     0.7378    10.6795    19.8021 </r>
       <r>     0.7988    10.4079    20.4369 </r>
       <r>     0.8598    11.0151    21.1088 </r>
       <r>     0.9208    11.7557    21.8258 </r>
       <r>     0.9818    11.4917    22.5268 </r>
       <r>     1.0428     9.7206    23.1197 </r>
       <r>     1.1038     6.9440    23.5432 </r>
       <r>     1.1647     4.1511    23.7964 </r>
       <r>     1.2257     2.0698    23.9226 </r>
       <r>     1.2867     0.8598    23.9751 </r>
       <r>     1.3477     0.2974    23.9932 </r>
       <r>     1.4087     0.0856    23.9984 </r>
       <r>     1.4697     0.0205    23.9997 </r>
       <r>     1.5307     0.0041    24.0000 </r>
       <r>     1.5917     0.0007    24.0000 </r>
       <r>     1.6527     0.0001    24.0000 </r>
       <r>     1.7137     0.0000    24.0000 </r>
       <r>     1.7747     0.0000    24.0000 </r>
       <r>     1.8357     0.0000    24.0000 </r>
       <r>     1.8967     0.0000    24.0000 </r>
       <r>     1.9577     0.0000    24.0000 </r>
       <r>     2.0187     0.0000    24.0000 </r>
       <r>     2.0797     0.0000    24.0000 </r>
       <r>     2.1407     0.0000    24.0000 </r>
       <r>     2.2017     0.0000    24.0000 </r>
       <r>     2.2627     0.0000    24.0000 </r>
       <r>     2.3236     0.0000    24.0000 </r>
       <r>     2.3846     0.0000    24.0000 </r>
       <r>     2.4456     0.0000    24.0000 </r>
       <r>     2.5066     0.0000    24.0000 </r>
       <r>     2.5676     0.0000    24.0000 </r>
       <r>     2.6286     0.0000    24.0000 </r>
       <r>     2.6896     0.0000    24.0000 </r>
       <r>     2.7506     0.0000    24.0000 </r>
       <r>     2.8116     0.0000    24.0000 </r>
       <r>     2.8726     0.0000    24.0000 </r>
       <r>     2.9336     0.0000    24.0000 </r>
      </set>
     </set>
    </array>
   </total>
  </dos>
 </calculation>
 <structure name="finalpos" >
  <crystal>
   <varray name="basis" >
    <v>      15.00000000       0.00000000       0.00000000 </v>
    <v>       0.00000000      15.00000000       0.00000000 </v>
    <v>       0.00000000       0.00000000       8.00000000 </v>
   </varray>
   <i name="volume">   1800.00000000 </i>
   <varray name="rec_basis" >
    <v>       0.06666667      -0.00000000       0.00000000 </v>
    <v>       0.00000000       0.06666667       0.00000000 </v>
    <v>      -0.00000000      -0.00000000       0.12500000 </v>
   </varray>
  </crystal>
  <varray name="positions" >
   <v>       0.00000000       0.00000000       0.00000000 </v>
   <v>       0.00000000       0.00000000       0.12500000 </v>
   <v>       0.00000000       0.00000000       0.25000000 </v>
   <v>       0.00000000       0.00000000       0.37500000 </v>
   <v>       0.00000000       0.00000000       0.50000000 </v>
   <v>       0.00000000       0.00000000       0.62500000 </v>
   <v>       0.00000000       0.00000000       0.75000000 </v>
   <v>       0.00000000       0.00000000       0.87500000 </v>
  </varray>
 </structure>
</modeling>
