   8   8   0   0
  0.5625000E+03  0.1500000E-08  0.1500000E-08  0.2000000E-08  0.5000000E-15
  1.000000000000000E-004
  CAR 
 unknown system                          
      2.25061113     -9.77597541  301     -6.70345348      1.00000000
     -9.776  0.0000E+00  0.0000E+00  0.0000E+00  0.0000E+00
     -9.736  0.0000E+00  0.0000E+00  0.0000E+00  0.0000E+00
     -9.696  0.0000E+00  0.0000E+00  0.0000E+00  0.0000E+00
     -9.656  0.0000E+00  0.0000E+00  0.0000E+00  0.0000E+00
     -9.616  0.0000E+00  0.0000E+00  0.0000E+00  0.0000E+00
     -9.576  0.0000E+00  0.0000E+00  0.0000E+00  0.0000E+00
     -9.535  0.0000E+00  0.0000E+00  0.0000E+00  0.0000E+00
     -9.495  0.0000E+00  0.0000E+00  0.0000E+00  0.0000E+00
     -9.455  0.0000E+00  0.0000E+00  0.0000E+00  0.0000E+00
     -9.415  0.0000E+00  0.0000E+00  0.0000E+00  0.0000E+00
     -9.375  0.0000E+00  0.0000E+00  0.0000E+00  0.0000E+00
     -9.335  0.0000E+00  0.0000E+00  0.0000E+00  0.0000E+00
     -9.295  0.0000E+00  0.0000E+00  0.0000E+00  0.0000E+00
     -9.255  0.0000E+00  0.0000E+00  0.0000E+00  0.0000E+00
     -9.215  0.0000E+00  0.0000E+00  0.0000E+00  0.0000E+00
     -9.175  0.0000E+00  0.0000E+00  0.0000E+00  0.0000E+00
     -9.135  0.0000E+00  0.0000E+00  0.0000E+00  0.0000E+00
     -9.094  0.0000E+00  0.0000E+00  0.0000E+00  0.0000E+00
     -9.054  0.0000E+00  0.0000E+00  0.0000E+00  0.0000E+00
     -9.014  0.0000E+00  0.0000E+00  0.0000E+00  0.0000E+00
     -8.974  0.0000E+00  0.0000E+00  0.0000E+00  0.0000E+00
     -8.934  0.5539E-14  0.5539E-14  0.2220E-15  0.2220E-15
     -8.894  0.6093E-13  0.6093E-13  0.2665E-14  0.2665E-14
     -8.854  0.5539E-12  0.5539E-12  0.2487E-13  0.2487E-13
     -8.814  0.4752E-11  0.4752E-11  0.2154E-12  0.2154E-12
     -8.774  0.3756E-10  0.3756E-10  0.1721E-11  0.1721E-11
     -8.734  0.2740E-09  0.2741E-09  0.1271E-10  0.1271E-10
     -8.694  0.1846E-08  0.1846E-08  0.8671E-10  0.8672E-10
     -8.653  0.1148E-07  0.1148E-07  0.5470E-09  0.5470E-09
     -8.613  0.6592E-07  0.6592E-07  0.3190E-08  0.3190E-08
     -8.573  0.3494E-06  0.3494E-06  0.1720E-07  0.1720E-07
     -8.533  0.1710E-05  0.1710E-05  0.8575E-07  0.8575E-07
     -8.493  0.7726E-05  0.7726E-05  0.3955E-06  0.3955E-06
     -8.453  0.3223E-04  0.3223E-04  0.1687E-05  0.1688E-05
     -8.413  0.1241E-03  0.1241E-03  0.6663E-05  0.6663E-05
     -8.373  0.4413E-03  0.4413E-03  0.2435E-04  0.2435E-04
     -8.333  0.1449E-02  0.1449E-02  0.8243E-04  0.8243E-04
     -8.293  0.4391E-02  0.4391E-02  0.2584E-03  0.2584E-03
     -8.253  0.1229E-01  0.1229E-01  0.7510E-03  0.7510E-03
     -8.213  0.3175E-01  0.3175E-01  0.2024E-02  0.2024E-02
     -8.172  0.7575E-01  0.7575E-01  0.5060E-02  0.5060E-02
     -8.132  0.1669E+00  0.1669E+00  0.1175E-01  0.1175E-01
     -8.092  0.3397E+00  0.3397E+00  0.2537E-01  0.2537E-01
     -8.052  0.6388E+00  0.6388E+00  0.5098E-01  0.5098E-01
     -8.012  0.1111E+01  0.1111E+01  0.9551E-01  0.9551E-01
     -7.972  0.1787E+01  0.1787E+01  0.1672E+00  0.1672E+00
     -7.932  0.2667E+01  0.2667E+01  0.2741E+00  0.2741E+00
     -7.892  0.3699E+01  0.3699E+01  0.4224E+00  0.4224E+00
     -7.852  0.4797E+01  0.4797E+01  0.6146E+00  0.6146E+00
     -7.812  0.5858E+01  0.5858E+01  0.8495E+00  0.8495E+00
     -7.772  0.6819E+01  0.6819E+01  0.1123E+01  0.1123E+01
     -7.731  0.7681E+01  0.7681E+01  0.1431E+01  0.1431E+01
     -7.691  0.8512E+01  0.8512E+01  0.1772E+01  0.1772E+01
     -7.651  0.9392E+01  0.9392E+01  0.2149E+01  0.2149E+01
     -7.611  0.1034E+02  0.1034E+02  0.2563E+01  0.2563E+01
     -7.571  0.1126E+02  0.1126E+02  0.3015E+01  0.3015E+01
     -7.531  0.1195E+02  0.1195E+02  0.3494E+01  0.3494E+01
     -7.491  0.1214E+02  0.1214E+02  0.3980E+01  0.3980E+01
     -7.451  0.1167E+02  0.1167E+02  0.4448E+01  0.4448E+01
     -7.411  0.1051E+02  0.1051E+02  0.4869E+01  0.4869E+01
     -7.371  0.8811E+01  0.8811E+01  0.5222E+01  0.5222E+01
     -7.331  0.6858E+01  0.6858E+01  0.5497E+01  0.5497E+01
     -7.290  0.4944E+01  0.4944E+01  0.5695E+01  0.5695E+01
     -7.250  0.3298E+01  0.3298E+01  0.5828E+01  0.5828E+01
     -7.210  0.2041E+01  0.2041E+01  0.5909E+01  0.5909E+01
     -7.170  0.1186E+01  0.1186E+01  0.5957E+01  0.5957E+01
     -7.130  0.6862E+00  0.6862E+00  0.5985E+01  0.5985E+01
     -7.090  0.4798E+00  0.4798E+00  0.6004E+01  0.6004E+01
     -7.050  0.5320E+00  0.5320E+00  0.6025E+01  0.6025E+01
     -7.010  0.8519E+00  0.8519E+00  0.6059E+01  0.6059E+01
     -6.970  0.1488E+01  0.1488E+01  0.6119E+01  0.6119E+01
     -6.930  0.2501E+01  0.2501E+01  0.6219E+01  0.6219E+01
     -6.890  0.3915E+01  0.3915E+01  0.6376E+01  0.6376E+01
     -6.850  0.5669E+01  0.5669E+01  0.6603E+01  0.6603E+01
     -6.809  0.7582E+01  0.7582E+01  0.6907E+01  0.6907E+01
     -6.769  0.9362E+01  0.9362E+01  0.7283E+01  0.7283E+01
     -6.729  0.1067E+02  0.1067E+02  0.7711E+01  0.7711E+01
     -6.689  0.1124E+02  0.1124E+02  0.8161E+01  0.8161E+01
     -6.649  0.1092E+02  0.1092E+02  0.8599E+01  0.8599E+01
     -6.609  0.9801E+01  0.9801E+01  0.8992E+01  0.8992E+01
     -6.569  0.8120E+01  0.8120E+01  0.9317E+01  0.9317E+01
     -6.529  0.6211E+01  0.6211E+01  0.9566E+01  0.9566E+01
     -6.489  0.4387E+01  0.4387E+01  0.9742E+01  0.9742E+01
     -6.449  0.2861E+01  0.2861E+01  0.9857E+01  0.9857E+01
     -6.409  0.1722E+01  0.1722E+01  0.9926E+01  0.9926E+01
     -6.368  0.9574E+00  0.9574E+00  0.9964E+01  0.9964E+01
     -6.328  0.4914E+00  0.4914E+00  0.9984E+01  0.9984E+01
     -6.288  0.2332E+00  0.2332E+00  0.9993E+01  0.9993E+01
     -6.248  0.1031E+00  0.1031E+00  0.9997E+01  0.9997E+01
     -6.208  0.4508E-01  0.4508E-01  0.9999E+01  0.9999E+01
     -6.168  0.2702E-01  0.2702E-01  0.1000E+02  0.1000E+02
     -6.128  0.3725E-01  0.3725E-01  0.1000E+02  0.1000E+02
     -6.088  0.8252E-01  0.8252E-01  0.1001E+02  0.1001E+02
     -6.048  0.1892E+00  0.1892E+00  0.1001E+02  0.1001E+02
     -6.008  0.4068E+00  0.4069E+00  0.1003E+02  0.1003E+02
     -5.968  0.8093E+00  0.8094E+00  0.1006E+02  0.1006E+02
     -5.927  0.1487E+01  0.1487E+01  0.1012E+02  0.1012E+02
     -5.887  0.2522E+01  0.2522E+01  0.1022E+02  0.1022E+02
     -5.847  0.3950E+01  0.3950E+01  0.1038E+02  0.1038E+02
     -5.807  0.5712E+01  0.5712E+01  0.1061E+02  0.1061E+02
     -5.767  0.7625E+01  0.7625E+01  0.1092E+02  0.1092E+02
     -5.727  0.9399E+01  0.9399E+01  0.1129E+02  0.1129E+02
     -5.687  0.1070E+02  0.1070E+02  0.1172E+02  0.1172E+02
     -5.647  0.1124E+02  0.1124E+02  0.1217E+02  0.1217E+02
     -5.607  0.1091E+02  0.1091E+02  0.1261E+02  0.1261E+02
     -5.567  0.9779E+01  0.9779E+01  0.1300E+02  0.1300E+02
     -5.527  0.8109E+01  0.8109E+01  0.1333E+02  0.1333E+02
     -5.486  0.6243E+01  0.6243E+01  0.1358E+02  0.1358E+02
     -5.446  0.4515E+01  0.4515E+01  0.1376E+02  0.1376E+02
     -5.406  0.3170E+01  0.3170E+01  0.1388E+02  0.1388E+02
     -5.366  0.2339E+01  0.2339E+01  0.1398E+02  0.1398E+02
     -5.326  0.2049E+01  0.2049E+01  0.1406E+02  0.1406E+02
     -5.286  0.2252E+01  0.2252E+01  0.1415E+02  0.1415E+02
     -5.246  0.2840E+01  0.2840E+01  0.1426E+02  0.1426E+02
     -5.206  0.3661E+01  0.3661E+01  0.1441E+02  0.1441E+02
     -5.166  0.4523E+01  0.4523E+01  0.1459E+02  0.1459E+02
     -5.126  0.5225E+01  0.5225E+01  0.1480E+02  0.1480E+02
     -5.086  0.5595E+01  0.5595E+01  0.1503E+02  0.1503E+02
     -5.046  0.5540E+01  0.5540E+01  0.1525E+02  0.1525E+02
     -5.005  0.5067E+01  0.5067E+01  0.1545E+02  0.1545E+02
     -4.965  0.4279E+01  0.4279E+01  0.1562E+02  0.1562E+02
     -4.925  0.3336E+01  0.3336E+01  0.1576E+02  0.1576E+02
     -4.885  0.2402E+01  0.2402E+01  0.1585E+02  0.1585E+02
     -4.845  0.1597E+01  0.1597E+01  0.1592E+02  0.1592E+02
     -4.805  0.9799E+00  0.9799E+00  0.1596E+02  0.1596E+02
     -4.765  0.5552E+00  0.5552E+00  0.1598E+02  0.1598E+02
     -4.725  0.2905E+00  0.2905E+00  0.1599E+02  0.1599E+02
     -4.685  0.1403E+00  0.1403E+00  0.1600E+02  0.1600E+02
     -4.645  0.6257E-01  0.6257E-01  0.1600E+02  0.1600E+02
     -4.605  0.2576E-01  0.2576E-01  0.1600E+02  0.1600E+02
     -4.564  0.9793E-02  0.9793E-02  0.1600E+02  0.1600E+02
     -4.524  0.3437E-02  0.3437E-02  0.1600E+02  0.1600E+02
     -4.484  0.1114E-02  0.1114E-02  0.1600E+02  0.1600E+02
     -4.444  0.3332E-03  0.3332E-03  0.1600E+02  0.1600E+02
     -4.404  0.9203E-04  0.9203E-04  0.1600E+02  0.1600E+02
     -4.364  0.2347E-04  0.2347E-04  0.1600E+02  0.1600E+02
     -4.324  0.5525E-05  0.5525E-05  0.1600E+02  0.1600E+02
     -4.284  0.1201E-05  0.1201E-05  0.1600E+02  0.1600E+02
     -4.244  0.2410E-06  0.2410E-06  0.1600E+02  0.1600E+02
     -4.204  0.4464E-07  0.4464E-07  0.1600E+02  0.1600E+02
     -4.164  0.7636E-08  0.7635E-08  0.1600E+02  0.1600E+02
     -4.123  0.1206E-08  0.1206E-08  0.1600E+02  0.1600E+02
     -4.083  0.1758E-09  0.1758E-09  0.1600E+02  0.1600E+02
     -4.043  0.2366E-10  0.2366E-10  0.1600E+02  0.1600E+02
     -4.003  0.2936E-11  0.2936E-11  0.1600E+02  0.1600E+02
     -3.963  0.3379E-12  0.3379E-12  0.1600E+02  0.1600E+02
     -3.923  0.3877E-13  0.3877E-13  0.1600E+02  0.1600E+02
     -3.883  0.0000E+00  0.0000E+00  0.1600E+02  0.1600E+02
     -3.843  0.0000E+00  0.0000E+00  0.1600E+02  0.1600E+02
     -3.803  0.0000E+00  0.0000E+00  0.1600E+02  0.1600E+02
     -3.763  0.0000E+00  0.0000E+00  0.1600E+02  0.1600E+02
     -3.723  0.0000E+00  0.0000E+00  0.1600E+02  0.1600E+02
     -3.683  0.0000E+00  0.0000E+00  0.1600E+02  0.1600E+02
     -3.642  0.0000E+00  0.0000E+00  0.1600E+02  0.1600E+02
     -3.602  0.0000E+00  0.0000E+00  0.1600E+02  0.1600E+02
     -3.562  0.0000E+00  0.0000E+00  0.1600E+02  0.1600E+02
     -3.522  0.0000E+00  0.0000E+00  0.1600E+02  0.1600E+02
     -3.482  0.0000E+00  0.0000E+00  0.1600E+02  0.1600E+02
     -3.442  0.0000E+00  0.0000E+00  0.1600E+02  0.1600E+02
     -3.402  0.0000E+00  0.0000E+00  0.1600E+02  0.1600E+02
     -3.362  0.0000E+00  0.0000E+00  0.1600E+02  0.1600E+02
     -3.322  0.0000E+00  0.0000E+00  0.1600E+02  0.1600E+02
     -3.282  0.0000E+00  0.0000E+00  0.1600E+02  0.1600E+02
     -3.242  0.0000E+00  0.0000E+00  0.1600E+02  0.1600E+02
     -3.201  0.0000E+00  0.0000E+00  0.1600E+02  0.1600E+02
     -3.161  0.0000E+00  0.0000E+00  0.1600E+02  0.1600E+02
     -3.121  0.0000E+00  0.0000E+00  0.1600E+02  0.1600E+02
     -3.081  0.0000E+00  0.0000E+00  0.1600E+02  0.1600E+02
     -3.041  0.0000E+00  0.0000E+00  0.1600E+02  0.1600E+02
     -3.001  0.0000E+00  0.0000E+00  0.1600E+02  0.1600E+02
     -2.961  0.0000E+00  0.0000E+00  0.1600E+02  0.1600E+02
     -2.921  0.0000E+00  0.0000E+00  0.1600E+02  0.1600E+02
     -2.881  0.0000E+00  0.0000E+00  0.1600E+02  0.1600E+02
     -2.841  0.0000E+00  0.0000E+00  0.1600E+02  0.1600E+02
     -2.801  0.0000E+00  0.0000E+00  0.1600E+02  0.1600E+02
     -2.760  0.0000E+00  0.0000E+00  0.1600E+02  0.1600E+02
     -2.720  0.0000E+00  0.0000E+00  0.1600E+02  0.1600E+02
     -2.680  0.0000E+00  0.0000E+00  0.1600E+02  0.1600E+02
     -2.640  0.0000E+00  0.0000E+00  0.1600E+02  0.1600E+02
     -2.600  0.0000E+00  0.0000E+00  0.1600E+02  0.1600E+02
     -2.560  0.0000E+00  0.0000E+00  0.1600E+02  0.1600E+02
     -2.520  0.0000E+00  0.0000E+00  0.1600E+02  0.1600E+02
     -2.480  0.0000E+00  0.0000E+00  0.1600E+02  0.1600E+02
     -2.440  0.0000E+00  0.0000E+00  0.1600E+02  0.1600E+02
     -2.400  0.0000E+00  0.0000E+00  0.1600E+02  0.1600E+02
     -2.360  0.0000E+00  0.0000E+00  0.1600E+02  0.1600E+02
     -2.319  0.0000E+00  0.0000E+00  0.1600E+02  0.1600E+02
     -2.279  0.0000E+00  0.0000E+00  0.1600E+02  0.1600E+02
     -2.239  0.0000E+00  0.0000E+00  0.1600E+02  0.1600E+02
     -2.199  0.0000E+00  0.0000E+00  0.1600E+02  0.1600E+02
     -2.159  0.0000E+00  0.0000E+00  0.1600E+02  0.1600E+02
     -2.119  0.0000E+00  0.0000E+00  0.1600E+02  0.1600E+02
     -2.079  0.0000E+00  0.0000E+00  0.1600E+02  0.1600E+02
     -2.039  0.0000E+00  0.0000E+00  0.1600E+02  0.1600E+02
     -1.999  0.0000E+00  0.0000E+00  0.1600E+02  0.1600E+02
     -1.959  0.0000E+00  0.0000E+00  0.1600E+02  0.1600E+02
     -1.919  0.0000E+00  0.0000E+00  0.1600E+02  0.1600E+02
     -1.879  0.0000E+00  0.0000E+00  0.1600E+02  0.1600E+02
     -1.838  0.0000E+00  0.0000E+00  0.1600E+02  0.1600E+02
     -1.798  0.0000E+00  0.0000E+00  0.1600E+02  0.1600E+02
     -1.758  0.0000E+00  0.0000E+00  0.1600E+02  0.1600E+02
     -1.718  0.0000E+00  0.0000E+00  0.1600E+02  0.1600E+02
     -1.678  0.0000E+00  0.0000E+00  0.1600E+02  0.1600E+02
     -1.638  0.0000E+00  0.0000E+00  0.1600E+02  0.1600E+02
     -1.598  0.0000E+00  0.0000E+00  0.1600E+02  0.1600E+02
     -1.558  0.0000E+00  0.0000E+00  0.1600E+02  0.1600E+02
     -1.518  0.0000E+00  0.0000E+00  0.1600E+02  0.1600E+02
     -1.478  0.0000E+00  0.0000E+00  0.1600E+02  0.1600E+02
     -1.438  0.0000E+00  0.0000E+00  0.1600E+02  0.1600E+02
     -1.397  0.0000E+00  0.0000E+00  0.1600E+02  0.1600E+02
     -1.357  0.0000E+00  0.0000E+00  0.1600E+02  0.1600E+02
     -1.317  0.0000E+00  0.0000E+00  0.1600E+02  0.1600E+02
     -1.277  0.5539E-14  0.5539E-14  0.1600E+02  0.1600E+02
     -1.237  0.7477E-13  0.7200E-13  0.1600E+02  0.1600E+02
     -1.197  0.6564E-12  0.6370E-12  0.1600E+02  0.1600E+02
     -1.157  0.5702E-11  0.5553E-11  0.1600E+02  0.1600E+02
     -1.117  0.4566E-10  0.4450E-10  0.1600E+02  0.1600E+02
     -1.077  0.3379E-09  0.3298E-09  0.1600E+02  0.1600E+02
     -1.037  0.2312E-08  0.2259E-08  0.1600E+02  0.1600E+02
     -0.997  0.1462E-07  0.1431E-07  0.1600E+02  0.1600E+02
     -0.956  0.8544E-07  0.8373E-07  0.1600E+02  0.1600E+02
     -0.916  0.4617E-06  0.4531E-06  0.1600E+02  0.1600E+02
     -0.876  0.2307E-05  0.2267E-05  0.1600E+02  0.1600E+02
     -0.836  0.1066E-04  0.1049E-04  0.1600E+02  0.1600E+02
     -0.796  0.4554E-04  0.4485E-04  0.1600E+02  0.1600E+02
     -0.756  0.1799E-03  0.1774E-03  0.1600E+02  0.1600E+02
     -0.716  0.6573E-03  0.6491E-03  0.1600E+02  0.1600E+02
     -0.676  0.2221E-02  0.2196E-02  0.1600E+02  0.1600E+02
     -0.636  0.6944E-02  0.6872E-02  0.1600E+02  0.1600E+02
     -0.596  0.2008E-01  0.1989E-01  0.1600E+02  0.1600E+02
     -0.556  0.5371E-01  0.5326E-01  0.1600E+02  0.1600E+02
     -0.516  0.1329E+00  0.1319E+00  0.1601E+02  0.1601E+02
     -0.475  0.3042E+00  0.3023E+00  0.1602E+02  0.1602E+02
     -0.435  0.6443E+00  0.6408E+00  0.1605E+02  0.1605E+02
     -0.395  0.1262E+01  0.1257E+01  0.1610E+02  0.1610E+02
     -0.355  0.2289E+01  0.2280E+01  0.1619E+02  0.1619E+02
     -0.315  0.3839E+01  0.3827E+01  0.1634E+02  0.1634E+02
     -0.275  0.5959E+01  0.5944E+01  0.1658E+02  0.1658E+02
     -0.235  0.8558E+01  0.8543E+01  0.1692E+02  0.1692E+02
     -0.195  0.1138E+02  0.1136E+02  0.1738E+02  0.1738E+02
     -0.155  0.1401E+02  0.1400E+02  0.1794E+02  0.1794E+02
     -0.115  0.1599E+02  0.1599E+02  0.1858E+02  0.1858E+02
     -0.075  0.1696E+02  0.1696E+02  0.1926E+02  0.1926E+02
     -0.034  0.1677E+02  0.1677E+02  0.1994E+02  0.1993E+02
      0.006  0.1557E+02  0.1557E+02  0.2056E+02  0.2056E+02
      0.046  0.1373E+02  0.1374E+02  0.2111E+02  0.2111E+02
      0.086  0.1175E+02  0.1175E+02  0.2158E+02  0.2158E+02
      0.126  0.9991E+01  0.9988E+01  0.2198E+02  0.2198E+02
      0.166  0.8661E+01  0.8657E+01  0.2233E+02  0.2233E+02
      0.206  0.7734E+01  0.7730E+01  0.2264E+02  0.2264E+02
      0.246  0.7036E+01  0.7036E+01  0.2292E+02  0.2292E+02
      0.286  0.6362E+01  0.6367E+01  0.2318E+02  0.2317E+02
      0.326  0.5570E+01  0.5580E+01  0.2340E+02  0.2340E+02
      0.366  0.4630E+01  0.4643E+01  0.2359E+02  0.2358E+02
      0.407  0.3609E+01  0.3623E+01  0.2373E+02  0.2373E+02
      0.447  0.2619E+01  0.2632E+01  0.2383E+02  0.2383E+02
      0.487  0.1762E+01  0.1773E+01  0.2391E+02  0.2390E+02
      0.527  0.1097E+01  0.1105E+01  0.2395E+02  0.2395E+02
      0.567  0.6315E+00  0.6370E+00  0.2397E+02  0.2397E+02
      0.607  0.3358E+00  0.3391E+00  0.2399E+02  0.2399E+02
      0.647  0.1649E+00  0.1667E+00  0.2400E+02  0.2399E+02
      0.687  0.7479E-01  0.7570E-01  0.2400E+02  0.2400E+02
      0.727  0.3132E-01  0.3174E-01  0.2400E+02  0.2400E+02
      0.767  0.1211E-01  0.1228E-01  0.2400E+02  0.2400E+02
      0.807  0.4322E-02  0.4390E-02  0.2400E+02  0.2400E+02
      0.848  0.1424E-02  0.1449E-02  0.2400E+02  0.2400E+02
      0.888  0.4334E-03  0.4413E-03  0.2400E+02  0.2400E+02
      0.928  0.1218E-03  0.1241E-03  0.2400E+02  0.2400E+02
      0.968  0.3158E-04  0.3223E-04  0.2400E+02  0.2400E+02
      1.008  0.7562E-05  0.7726E-05  0.2400E+02  0.2400E+02
      1.048  0.1672E-05  0.1710E-05  0.2400E+02  0.2400E+02
      1.088  0.3412E-06  0.3494E-06  0.2400E+02  0.2400E+02
      1.128  0.6430E-07  0.6592E-07  0.2400E+02  0.2400E+02
      1.168  0.1119E-07  0.1148E-07  0.2400E+02  0.2400E+02
      1.208  0.1796E-08  0.1846E-08  0.2400E+02  0.2400E+02
      1.248  0.2664E-09  0.2741E-09  0.2400E+02  0.2400E+02
      1.288  0.3647E-10  0.3756E-10  0.2400E+02  0.2400E+02
      1.329  0.4608E-11  0.4752E-11  0.2400E+02  0.2400E+02
      1.369  0.5317E-12  0.5539E-12  0.2400E+02  0.2400E+02
      1.409  0.6093E-13  0.6093E-13  0.2400E+02  0.2400E+02
      1.449  0.5539E-14  0.5539E-14  0.2400E+02  0.2400E+02
      1.489  0.0000E+00  0.0000E+00  0.2400E+02  0.2400E+02
      1.529  0.0000E+00  0.0000E+00  0.2400E+02  0.2400E+02
      1.569  0.0000E+00  0.0000E+00  0.2400E+02  0.2400E+02
      1.609  0.0000E+00  0.0000E+00  0.2400E+02  0.2400E+02
      1.649  0.0000E+00  0.0000E+00  0.2400E+02  0.2400E+02
      1.689  0.0000E+00  0.0000E+00  0.2400E+02  0.2400E+02
      1.729  0.0000E+00  0.0000E+00  0.2400E+02  0.2400E+02
      1.770  0.0000E+00  0.0000E+00  0.2400E+02  0.2400E+02
      1.810  0.0000E+00  0.0000E+00  0.2400E+02  0.2400E+02
      1.850  0.0000E+00  0.0000E+00  0.2400E+02  0.2400E+02
      1.890  0.0000E+00  0.0000E+00  0.2400E+02  0.2400E+02
      1.930  0.0000E+00  0.0000E+00  0.2400E+02  0.2400E+02
      1.970  0.0000E+00  0.0000E+00  0.2400E+02  0.2400E+02
      2.010  0.0000E+00  0.0000E+00  0.2400E+02  0.2400E+02
      2.050  0.0000E+00  0.0000E+00  0.2400E+02  0.2400E+02
      2.090  0.0000E+00  0.0000E+00  0.2400E+02  0.2400E+02
      2.130  0.0000E+00  0.0000E+00  0.2400E+02  0.2400E+02
      2.170  0.0000E+00  0.0000E+00  0.2400E+02  0.2400E+02
      2.211  0.0000E+00  0.0000E+00  0.2400E+02  0.2400E+02
      2.251  0.0000E+00  0.0000E+00  0.2400E+02  0.2400E+02
