    8    8    1    2
  0.5625000E+03  0.1500000E-08  0.1500000E-08  0.2000000E-08  0.5000000E-15
  1.000000000000000E-004
  CAR 
 unknown system                          
      8      1     12
 
  0.0000000E+00  0.0000000E+00  0.0000000E+00  0.1000000E+01
    1       -7.775975     -7.775975   1.000000   1.000000
    2       -7.493057     -7.493058   1.000000   1.000000
    3       -7.493057     -7.493057   1.000000   1.000000
    4       -6.703457     -6.703458   0.500013   0.500013
    5       -6.703448     -6.703449   0.499987   0.499987
    6       -5.662072     -5.662073   0.000000   0.000000
    7       -5.662072     -5.662073   0.000000   0.000000
    8       -5.090277     -5.090278   0.000000   0.000000
    9       -0.119481     -0.118880   0.000000   0.000000
   10       -0.073879     -0.073862   0.000000   0.000000
   11       -0.073879     -0.073862   0.000000   0.000000
   12        0.250026      0.250611   0.000000   0.000000
