       N       E                     dE             d eps       ncg     rms          rms(c)
DAV:   1     0.196626989226E+02    0.19663E+02   -0.72498E+02    48   0.166E+02
DAV:   2    -0.198694868738E+01   -0.21650E+02   -0.21527E+02    72   0.489E+01
DAV:   3    -0.557797989821E+01   -0.35910E+01   -0.34402E+01    60   0.229E+01
DAV:   4    -0.582178231561E+01   -0.24380E+00   -0.23334E+00    56   0.577E+00
DAV:   5    -0.582504665285E+01   -0.32643E-02   -0.32628E-02    60   0.597E-01    0.134E+00
DAV:   6    -0.583712133912E+01   -0.12075E-01   -0.12339E-02    48   0.492E-01    0.789E-01
DAV:   7    -0.586322738126E+01   -0.26106E-01   -0.25179E-02    48   0.729E-01    0.692E-02
DAV:   8    -0.586456528069E+01   -0.13379E-02   -0.91480E-04    56   0.153E-01    0.308E-02
DAV:   9    -0.586472188243E+01   -0.15660E-03   -0.42019E-05    56   0.380E-02    0.939E-03
DAV:  10    -0.586476122799E+01   -0.39346E-04   -0.55737E-06    56   0.102E-02    0.175E-03
DAV:  11    -0.586478838236E+01   -0.27154E-04   -0.14226E-06    48   0.499E-03    0.121E-03
DAV:  12    -0.586481097729E+01   -0.22595E-04   -0.16807E-06    48   0.506E-03    0.575E-04
DAV:  13    -0.586481705245E+01   -0.60752E-05   -0.20420E-07    40   0.193E-03    0.464E-04
DAV:  14    -0.586482639690E+01   -0.93444E-05   -0.85334E-07    32   0.302E-03    0.234E-04
DAV:  15    -0.586482743918E+01   -0.10423E-05   -0.10374E-07    36   0.122E-03    0.145E-04
DAV:  16    -0.586482965215E+01   -0.22130E-05   -0.31278E-08    32   0.700E-04    0.889E-05
DAV:  17    -0.586483115548E+01   -0.15033E-05   -0.25639E-08    32   0.573E-04    0.411E-05
DAV:  18    -0.586483170564E+01   -0.55016E-06   -0.57042E-09    40   0.290E-04
   1 F= -.58648317E+01 E0= -.57519938E+01  d E =-.225676E+00  mag=     0.0000
