<?xml version="1.0" encoding="ISO-8859-1"?>
<modeling>
 <generator>
  <i name="program" type="string">vasp </i>
  <i name="version" type="string">5.4.4.18Apr17-6-g9f103f2a35  </i>
  <i name="subversion" type="string">(build Aug 24 2024 05:40:03) complex            parallel </i>
  <i name="platform" type="string">IFC22_IMPI </i>
  <i name="date" type="string">2024 11 22 </i>
  <i name="time" type="string">21:46:34 </i>
 </generator>
 <incar>
  <i type="string" name="PREC">normal</i>
  <i type="int" name="ISPIN">     2</i>
  <i type="int" name="ICHARG">     2</i>
  <i type="int" name="NELM">   100</i>
  <i name="EDIFF">      0.00000100</i>
  <i type="int" name="NSW">     0</i>
  <i name="ENCUT">    300.00000000</i>
  <i name="NUPDOWN">      0.00000000</i>
  <i type="int" name="ISMEAR">     0</i>
  <i name="SIGMA">      0.20000000</i>
  <i type="logical" name="LWAVE"> F  </i>
  <i type="logical" name="LCHARG"> F  </i>
  <v type="int" name="KPOINT_BSE">    -1     0     0     0</v>
  <i type="int" name="NELM">   100</i>
 </incar>
 <structure name="primitive_cell" >
  <crystal>
   <varray name="basis" >
    <v>      15.00000000       0.00000000       0.00000000 </v>
    <v>       0.00000000      15.00000000       0.00000000 </v>
    <v>       0.00000000       0.00000000       2.50000000 </v>
   </varray>
   <i name="volume">    562.50000000 </i>
   <varray name="rec_basis" >
    <v>       0.06666667      -0.00000000       0.00000000 </v>
    <v>       0.00000000       0.06666667       0.00000000 </v>
    <v>      -0.00000000      -0.00000000       0.40000000 </v>
   </varray>
  </crystal>
  <varray name="positions" >
   <v>       0.00000000       0.00000000       0.00000000 </v>
  </varray>
 </structure>
 <varray name="primitive_index" >
  <v type="int" >        1 </v>
 </varray>
 <kpoints>
  <generation param="Gamma">
   <v type="int" name="divisions">       1        1        1 </v>
   <v name="usershift">      0.00000000       0.00000000       0.00000000 </v>
   <v name="genvec1">      1.00000000       0.00000000       0.00000000 </v>
   <v name="genvec2">      0.00000000       1.00000000       0.00000000 </v>
   <v name="genvec3">      0.00000000       0.00000000       1.00000000 </v>
   <v name="shift">      0.00000000       0.00000000       0.00000000 </v>
  </generation>
  <varray name="kpointlist" >
   <v>       0.00000000       0.00000000       0.00000000 </v>
  </varray>
  <varray name="weights" >
   <v>       1.00000000 </v>
  </varray>
 </kpoints>
 <parameters>
  <separator name="general" >
   <i type="string" name="SYSTEM">unknown system</i>
   <i type="logical" name="LCOMPAT"> F  </i>
  </separator>
  <separator name="electronic" >
   <i type="string" name="PREC">normal</i>
   <i name="ENMAX">    300.00000000</i>
   <i name="ENAUG">    400.00000000</i>
   <i name="EDIFF">      0.00000100</i>
   <i type="int" name="IALGO">    38</i>
   <i type="int" name="IWAVPR">    10</i>
   <i type="int" name="NBANDS">    12</i>
   <i name="NELECT">      8.00000000</i>
   <i type="int" name="TURBO">     0</i>
   <i type="int" name="IRESTART">     0</i>
   <i type="int" name="NREBOOT">     0</i>
   <i type="int" name="NMIN">     0</i>
   <i name="EREF">      0.00000000</i>
   <separator name="electronic smearing" >
    <i type="int" name="ISMEAR">     0</i>
    <i name="SIGMA">      0.20000000</i>
    <i name="KSPACING">      0.50000000</i>
    <i type="logical" name="KGAMMA"> T  </i>
   </separator>
   <separator name="electronic projectors" >
    <i type="logical" name="LREAL"> F  </i>
    <v name="ROPT">      0.00000000</v>
    <i type="int" name="LMAXPAW">  -100</i>
    <i type="int" name="LMAXMIX">     2</i>
    <i type="logical" name="NLSPLINE"> F  </i>
   </separator>
   <separator name="electronic startup" >
    <i type="int" name="ISTART">     0</i>
    <i type="int" name="ICHARG">     2</i>
    <i type="int" name="INIWAV">     1</i>
   </separator>
   <separator name="electronic spin" >
    <i type="int" name="ISPIN">     2</i>
    <i type="logical" name="LNONCOLLINEAR"> F  </i>
    <v name="MAGMOM">      0.00000000      0.00000000      0.00000000      0.00000000      0.00000000      0.00000000      0.00000000      0.00000000</v>
    <i name="NUPDOWN">      0.00000000</i>
    <i type="logical" name="LSORBIT"> F  </i>
    <v name="SAXIS">      0.00000000      0.00000000      1.00000000</v>
    <i type="logical" name="LSPIRAL"> F  </i>
    <v name="QSPIRAL">      0.00000000      0.00000000      0.00000000</v>
    <i type="logical" name="LZEROZ"> F  </i>
   </separator>
   <separator name="electronic exchange-correlation" >
    <i type="logical" name="LASPH"> F  </i>
    <i type="logical" name="LMETAGGA"> F  </i>
   </separator>
   <separator name="electronic convergence" >
    <i type="int" name="NELM">   100</i>
    <i type="int" name="NELMDL">    -5</i>
    <i type="int" name="NELMIN">     2</i>
    <i name="ENINI">    300.00000000</i>
    <separator name="electronic convergence detail" >
     <i type="logical" name="LDIAG"> T  </i>
     <i type="logical" name="LSUBROT"> F  </i>
     <i name="WEIMIN">      0.00000000</i>
     <i name="EBREAK">      0.00000002</i>
     <i name="DEPER">      0.30000000</i>
     <i type="int" name="NRMM">     4</i>
     <i name="TIME">      0.40000000</i>
    </separator>
   </separator>
   <separator name="electronic mixer" >
    <i name="AMIX">      0.40000000</i>
    <i name="BMIX">      1.00000000</i>
    <i name="AMIN">      0.10000000</i>
    <i name="AMIX_MAG">      1.60000000</i>
    <i name="BMIX_MAG">      1.00000000</i>
    <separator name="electronic mixer details" >
     <i type="int" name="IMIX">     4</i>
     <i type="logical" name="MIXFIRST"> F  </i>
     <i type="int" name="MAXMIX">   -45</i>
     <i name="WC">    100.00000000</i>
     <i type="int" name="INIMIX">     1</i>
     <i type="int" name="MIXPRE">     1</i>
     <i type="int" name="MREMOVE">     5</i>
    </separator>
   </separator>
   <separator name="electronic dipolcorrection" >
    <i type="logical" name="LDIPOL"> F  </i>
    <i type="logical" name="LMONO"> F  </i>
    <i type="int" name="IDIPOL">     0</i>
    <i name="EPSILON">      1.00000000</i>
    <v name="DIPOL">   -100.00000000   -100.00000000   -100.00000000</v>
    <i name="EFIELD">      0.00000000</i>
   </separator>
  </separator>
  <separator name="grids" >
   <i type="int" name="NGX">    64</i>
   <i type="int" name="NGY">    64</i>
   <i type="int" name="NGZ">    90</i>
   <i type="int" name="NGXF">   128</i>
   <i type="int" name="NGYF">   128</i>
   <i type="int" name="NGZF">   180</i>
   <i type="logical" name="ADDGRID"> F  </i>
  </separator>
  <separator name="ionic" >
   <i type="int" name="NSW">     0</i>
   <i type="int" name="IBRION">    -1</i>
   <i type="int" name="MDALGO">     0</i>
   <i type="int" name="ISIF">     2</i>
   <i name="PSTRESS">      0.00000000</i>
   <i name="EDIFFG">      0.00001000</i>
   <i type="int" name="NFREE">     0</i>
   <i name="POTIM">      0.50000000</i>
   <i name="SMASS">     -3.00000000</i>
   <i name="SCALEE">      1.00000000</i>
  </separator>
  <separator name="ionic md" >
   <i name="TEBEG">      0.00010000</i>
   <i name="TEEND">      0.00010000</i>
   <i type="int" name="NBLOCK">     1</i>
   <i type="int" name="KBLOCK">     1</i>
   <i type="int" name="NPACO">   256</i>
   <i name="APACO">     16.00000000</i>
  </separator>
  <separator name="symmetry" >
   <i type="int" name="ISYM">     2</i>
   <i name="SYMPREC">      0.00001000</i>
  </separator>
  <separator name="dos" >
   <i type="int" name="LORBIT">     0</i>
   <v name="RWIGS">     -1.00000000</v>
   <i type="int" name="NEDOS">   301</i>
   <i name="EMIN">     10.00000000</i>
   <i name="EMAX">    -10.00000000</i>
   <i name="EFERMI">      0.00000000</i>
  </separator>
  <separator name="writing" >
   <i type="int" name="NWRITE">     2</i>
   <i type="logical" name="LWAVE"> F  </i>
   <i type="logical" name="LDOWNSAMPLE"> F  </i>
   <i type="logical" name="LCHARG"> F  </i>
   <i type="logical" name="LPARD"> F  </i>
   <i type="logical" name="LVTOT"> F  </i>
   <i type="logical" name="LVHAR"> F  </i>
   <i type="logical" name="LELF"> F  </i>
   <i type="logical" name="LOPTICS"> F  </i>
   <v name="STM">      0.00000000      0.00000000      0.00000000      0.00000000      0.00000000      0.00000000      0.00000000</v>
  </separator>
  <separator name="performance" >
   <i type="int" name="NPAR">     4</i>
   <i type="int" name="NSIM">     4</i>
   <i type="int" name="NBLK">    -1</i>
   <i type="logical" name="LPLANE"> T  </i>
   <i type="logical" name="LSCALAPACK"> T  </i>
   <i type="logical" name="LSCAAWARE"> F  </i>
   <i type="logical" name="LSCALU"> F  </i>
   <i type="logical" name="LASYNC"> F  </i>
   <i type="logical" name="LORBITALREAL"> F  </i>
  </separator>
  <separator name="miscellaneous" >
   <i type="int" name="IDIOT">     3</i>
   <i type="int" name="ISPECIAL">     0</i>
   <i type="logical" name="LMUSIC"> F  </i>
   <v name="POMASS">      1.00000000</v>
   <v name="DARWINR">      0.00000000</v>
   <v name="DARWINV">      1.00000000</v>
   <i type="logical" name="LCORR"> T  </i>
  </separator>
  <i type="logical" name="GGA_COMPAT"> T  </i>
  <i type="logical" name="LBERRY"> F  </i>
  <i type="int" name="ICORELEVEL">     0</i>
  <i type="logical" name="LDAU"> F  </i>
  <i type="int" name="I_CONSTRAINED_M">     0</i>
  <separator name="electronic exchange-correlation" >
   <i type="string" name="GGA">--</i>
   <i type="int" name="VOSKOWN">     0</i>
   <i type="logical" name="LHFCALC"> F  </i>
   <i type="string" name="PRECFOCK"></i>
   <i type="logical" name="LSYMGRAD"> F  </i>
   <i type="logical" name="LHFONE"> F  </i>
   <i type="logical" name="LRHFCALC"> F  </i>
   <i type="logical" name="LTHOMAS"> F  </i>
   <i type="logical" name="LMODELHF"> F  </i>
   <i name="ENCUT4O">     -1.00000000</i>
   <i type="int" name="EXXOEP">     0</i>
   <i type="int" name="FOURORBIT">     0</i>
   <i name="AEXX">      0.00000000</i>
   <i name="HFALPHA">      0.00000000</i>
   <i name="MCALPHA">      0.00000000</i>
   <i name="ALDAX">      1.00000000</i>
   <i name="AGGAX">      1.00000000</i>
   <i name="ALDAC">      1.00000000</i>
   <i name="AGGAC">      1.00000000</i>
   <i type="int" name="NKREDX">     1</i>
   <i type="int" name="NKREDY">     1</i>
   <i type="int" name="NKREDZ">     1</i>
   <i type="logical" name="SHIFTRED"> F  </i>
   <i type="logical" name="ODDONLY"> F  </i>
   <i type="logical" name="EVENONLY"> F  </i>
   <i type="int" name="LMAXFOCK">     0</i>
   <i type="int" name="NMAXFOCKAE">     0</i>
   <i type="logical" name="LFOCKAEDFT"> F  </i>
   <i name="HFSCREEN">      0.00000000</i>
   <i name="HFSCREENC">      0.00000000</i>
   <i type="int" name="NBANDSGWLOW">     0</i>
  </separator>
  <separator name="vdW DFT" >
   <i type="logical" name="LUSE_VDW"> F  </i>
   <i name="Zab_VDW">     -0.84910000</i>
   <i name="PARAM1">      0.12340000</i>
   <i name="PARAM2">      1.00000000</i>
   <i name="PARAM3">      0.00000000</i>
  </separator>
  <separator name="model GW" >
   <i type="int" name="MODEL_GW">     0</i>
   <i name="MODEL_EPS0">    337.50000000</i>
   <i name="MODEL_ALPHA">      1.00000000</i>
  </separator>
  <separator name="linear response parameters" >
   <i type="logical" name="LEPSILON"> F  </i>
   <i type="logical" name="LRPA"> F  </i>
   <i type="logical" name="LNABLA"> F  </i>
   <i type="logical" name="LVEL"> F  </i>
   <i type="int" name="KINTER">     0</i>
   <i name="CSHIFT">      0.10000000</i>
   <i name="OMEGAMAX">     -1.00000000</i>
   <i name="DEG_THRESHOLD">      0.00200000</i>
   <i name="RTIME">     -0.10000000</i>
   <i name="WPLASMAI">      0.00000000</i>
   <v name="DFIELD">      0.00000000      0.00000000      0.00000000</v>
   <v name="WPLASMA">      0.00000000      0.00000000      0.00000000      0.00000000      0.00000000      0.00000000      0.00000000      0.00000000      0.00000000</v>
  </separator>
  <separator name="orbital magnetization" >
   <i type="logical" name="NUCIND"> F  </i>
   <v name="MAGPOS">      0.00000000      0.00000000      0.00000000</v>
   <i type="logical" name="LNICSALL"> T  </i>
   <i type="logical" name="ORBITALMAG"> F  </i>
   <i type="logical" name="LMAGBLOCH"> F  </i>
   <i type="logical" name="LCHIMAG"> F  </i>
   <i type="logical" name="LGAUGE"> T  </i>
   <i type="int" name="MAGATOM">     0</i>
   <v name="MAGDIPOL">      0.00000000      0.00000000      0.00000000</v>
   <v name="AVECCONST">      0.00000000      0.00000000      0.00000000</v>
  </separator>
  <separator name="response functions" >
   <i type="logical" name="LADDER"> F  </i>
   <i type="logical" name="LRPAFORCE"> F  </i>
   <i type="logical" name="LFXC"> F  </i>
   <i type="logical" name="LHARTREE"> T  </i>
   <i type="int" name="IBSE">     0</i>
   <v type="int" name="KPOINT">    -1     0     0     0</v>
   <i type="logical" name="LTCTE"> F  </i>
   <i type="logical" name="LTETE"> F  </i>
   <i type="logical" name="LTRIPLET"> F  </i>
   <i type="logical" name="LFXCEPS"> F  </i>
   <i type="logical" name="LFXHEG"> F  </i>
   <i type="int" name="NATURALO">     2</i>
   <i type="logical" name="L2ORDER"> F  </i>
   <i type="logical" name="LMP2LT"> F  </i>
   <i type="logical" name="LUSEW"> F  </i>
   <i name="ENCUTGW">     -2.00000000</i>
   <i name="ENCUTGWSOFT">     -2.00000000</i>
   <i name="ENCUTLF">     -1.00000000</i>
   <i type="int" name="LMAXMP2">    -1</i>
   <i name="SCISSOR">      0.00000000</i>
   <i type="int" name="NOMEGA">     0</i>
   <i type="int" name="NOMEGAR">     0</i>
   <i type="int" name="NBANDSGW">    -1</i>
   <i type="int" name="NBANDSO">    -1</i>
   <i type="int" name="NBANDSV">    -1</i>
   <i type="int" name="NELM">   100</i>
   <i type="int" name="NELMHF">     1</i>
   <i type="int" name="DIM">     3</i>
   <i type="int" name="ANTIRES">     0</i>
   <i name="OMEGAMAX">    -30.00000000</i>
   <i name="OMEGAMIN">    -30.00000000</i>
   <i name="OMEGATL">   -200.00000000</i>
   <i type="int" name="OMEGAGRID">   140</i>
   <i name="CSHIFT">     -0.10000000</i>
   <i type="logical" name="SELFENERGY"> F  </i>
   <i type="logical" name="LSPECTRAL"> F  </i>
   <i type="logical" name="LSPECTRALGW"> F  </i>
   <i type="logical" name="LSINGLES"> F  </i>
   <i type="logical" name="LFERMIGW"> F  </i>
   <i type="logical" name="ODDONLYGW"> F  </i>
   <i type="logical" name="EVENONLYGW"> F  </i>
   <i type="int" name="NKREDLFX">     1</i>
   <i type="int" name="NKREDLFY">     1</i>
   <i type="int" name="NKREDLFZ">     1</i>
   <i type="int" name="MAXMEM">  2800</i>
   <i type="int" name="TELESCOPE">     0</i>
   <i type="int" name="TAUPAR">     1</i>
   <i type="int" name="OMEGAPAR">    -1</i>
   <i name="LAMBDA">      1.00000000</i>
  </separator>
  <separator name="External order field" >
   <i name="OFIELD_KAPPA">      0.00000000</i>
   <v name="OFIELD_K">      0.00000000      0.00000000      0.00000000</v>
   <i name="OFIELD_Q6_NEAR">      0.00000000</i>
   <i name="OFIELD_Q6_FAR">      0.00000000</i>
   <i name="OFIELD_A">      0.00000000</i>
  </separator>
 </parameters>
 <atominfo>
  <atoms>       8 </atoms>
  <types>       1 </types>
  <array name="atoms" >
   <dimension dim="1">ion</dimension>
   <field type="string">element</field>
   <field type="int">atomtype</field>
   <set>
    <rc><c>H </c><c>   1</c></rc>
    <rc><c>H </c><c>   1</c></rc>
    <rc><c>H </c><c>   1</c></rc>
    <rc><c>H </c><c>   1</c></rc>
    <rc><c>H </c><c>   1</c></rc>
    <rc><c>H </c><c>   1</c></rc>
    <rc><c>H </c><c>   1</c></rc>
    <rc><c>H </c><c>   1</c></rc>
   </set>
  </array>
  <array name="atomtypes" >
   <dimension dim="1">type</dimension>
   <field type="int">atomspertype</field>
   <field type="string">element</field>
   <field>mass</field>
   <field>valence</field>
   <field type="string">pseudopotential</field>
   <set>
    <rc><c>   8</c><c>H </c><c>      1.00000000</c><c>      1.00000000</c><c>  PAW_PBE H 15Jun2001                   </c></rc>
   </set>
  </array>
 </atominfo>
 <structure name="initialpos" >
  <crystal>
   <varray name="basis" >
    <v>      15.00000000       0.00000000       0.00000000 </v>
    <v>       0.00000000      15.00000000       0.00000000 </v>
    <v>       0.00000000       0.00000000      20.00000000 </v>
   </varray>
   <i name="volume">   4500.00000000 </i>
   <varray name="rec_basis" >
    <v>       0.06666667      -0.00000000       0.00000000 </v>
    <v>       0.00000000       0.06666667       0.00000000 </v>
    <v>      -0.00000000      -0.00000000       0.05000000 </v>
   </varray>
  </crystal>
  <varray name="positions" >
   <v>       0.00000000       0.00000000       0.00000000 </v>
   <v>       0.00000000       0.00000000       0.12500000 </v>
   <v>       0.00000000       0.00000000       0.25000000 </v>
   <v>       0.00000000       0.00000000       0.37500000 </v>
   <v>       0.00000000       0.00000000       0.50000000 </v>
   <v>       0.00000000       0.00000000       0.62500000 </v>
   <v>       0.00000000       0.00000000       0.75000000 </v>
   <v>       0.00000000       0.00000000       0.87500000 </v>
  </varray>
 </structure>
 <calculation>
  <scstep>
   <time name="dav">    0.75    0.75</time>
   <time name="total">    1.89    1.89</time>
   <energy>
    <i name="alphaZ">      0.03464772 </i>
    <i name="ewald">     16.83254528 </i>
    <i name="hartreedc">    -79.93511586 </i>
    <i name="XCdc">     15.33949667 </i>
    <i name="pawpsdc">     17.07221949 </i>
    <i name="pawaedc">    -17.14324176 </i>
    <i name="eentropy">     -0.00000053 </i>
    <i name="bandstr">    -32.10405515 </i>
    <i name="atom">     99.56620307 </i>
    <i name="e_fr_energy">     19.66269892 </i>
    <i name="e_wo_entrp">     19.66269945 </i>
    <i name="e_0_energy">     19.66269919 </i>
   </energy>
  </scstep>
  <scstep>
   <time name="dav">    0.99    0.99</time>
   <time name="total">    0.99    0.99</time>
   <energy>
    <i name="e_fr_energy">     -1.98694869 </i>
    <i name="e_wo_entrp">     -1.97167999 </i>
    <i name="e_0_energy">     -1.97931434 </i>
   </energy>
  </scstep>
  <scstep>
   <time name="dav">    0.86    0.86</time>
   <time name="total">    0.86    0.86</time>
   <energy>
    <i name="e_fr_energy">     -5.57797990 </i>
    <i name="e_wo_entrp">     -5.36300910 </i>
    <i name="e_0_energy">     -5.47049450 </i>
   </energy>
  </scstep>
  <scstep>
   <time name="dav">    0.81    0.81</time>
   <time name="total">    0.81    0.81</time>
   <energy>
    <i name="e_fr_energy">     -5.82178232 </i>
    <i name="e_wo_entrp">     -5.59610797 </i>
    <i name="e_0_energy">     -5.70894514 </i>
   </energy>
  </scstep>
  <scstep>
   <time name="dav">    0.86    0.86</time>
   <time name="total">    1.21    1.21</time>
   <energy>
    <i name="e_fr_energy">     -5.82504665 </i>
    <i name="e_wo_entrp">     -5.59937077 </i>
    <i name="e_0_energy">     -5.71220871 </i>
   </energy>
  </scstep>
  <scstep>
   <time name="dav">    0.74    0.74</time>
   <time name="total">    2.26    2.26</time>
   <energy>
    <i name="e_fr_energy">     -5.83712134 </i>
    <i name="e_wo_entrp">     -5.61144547 </i>
    <i name="e_0_energy">     -5.72428340 </i>
   </energy>
  </scstep>
  <scstep>
   <time name="dav">    0.73    0.73</time>
   <time name="total">    2.25    2.27</time>
   <energy>
    <i name="e_fr_energy">     -5.86322738 </i>
    <i name="e_wo_entrp">     -5.63755151 </i>
    <i name="e_0_energy">     -5.75038944 </i>
   </energy>
  </scstep>
  <scstep>
   <time name="dav">    0.81    0.81</time>
   <time name="total">    2.30    2.30</time>
   <energy>
    <i name="e_fr_energy">     -5.86456528 </i>
    <i name="e_wo_entrp">     -5.63888941 </i>
    <i name="e_0_energy">     -5.75172734 </i>
   </energy>
  </scstep>
  <scstep>
   <time name="dav">    0.82    0.82</time>
   <time name="total">    2.31    2.34</time>
   <energy>
    <i name="e_fr_energy">     -5.86472188 </i>
    <i name="e_wo_entrp">     -5.63904601 </i>
    <i name="e_0_energy">     -5.75188395 </i>
   </energy>
  </scstep>
  <scstep>
   <time name="dav">    0.81    0.81</time>
   <time name="total">    2.31    2.31</time>
   <energy>
    <i name="e_fr_energy">     -5.86476123 </i>
    <i name="e_wo_entrp">     -5.63908536 </i>
    <i name="e_0_energy">     -5.75192329 </i>
   </energy>
  </scstep>
  <scstep>
   <time name="dav">    0.73    0.73</time>
   <time name="total">    2.23    2.23</time>
   <energy>
    <i name="e_fr_energy">     -5.86478838 </i>
    <i name="e_wo_entrp">     -5.63911251 </i>
    <i name="e_0_energy">     -5.75195045 </i>
   </energy>
  </scstep>
  <scstep>
   <time name="dav">    0.74    0.74</time>
   <time name="total">    2.23    2.22</time>
   <energy>
    <i name="e_fr_energy">     -5.86481098 </i>
    <i name="e_wo_entrp">     -5.63913511 </i>
    <i name="e_0_energy">     -5.75197304 </i>
   </energy>
  </scstep>
  <scstep>
   <time name="dav">    0.64    0.64</time>
   <time name="total">    2.12    2.12</time>
   <energy>
    <i name="e_fr_energy">     -5.86481705 </i>
    <i name="e_wo_entrp">     -5.63914118 </i>
    <i name="e_0_energy">     -5.75197912 </i>
   </energy>
  </scstep>
  <scstep>
   <time name="dav">    0.56    0.56</time>
   <time name="total">    2.08    2.08</time>
   <energy>
    <i name="e_fr_energy">     -5.86482640 </i>
    <i name="e_wo_entrp">     -5.63915053 </i>
    <i name="e_0_energy">     -5.75198846 </i>
   </energy>
  </scstep>
  <scstep>
   <time name="dav">    0.62    0.62</time>
   <time name="total">    2.17    2.17</time>
   <energy>
    <i name="e_fr_energy">     -5.86482744 </i>
    <i name="e_wo_entrp">     -5.63915157 </i>
    <i name="e_0_energy">     -5.75198950 </i>
   </energy>
  </scstep>
  <scstep>
   <time name="dav">    0.56    0.56</time>
   <time name="total">    2.09    2.09</time>
   <energy>
    <i name="e_fr_energy">     -5.86482965 </i>
    <i name="e_wo_entrp">     -5.63915378 </i>
    <i name="e_0_energy">     -5.75199172 </i>
   </energy>
  </scstep>
  <scstep>
   <time name="dav">    0.56    0.56</time>
   <time name="total">    2.09    2.08</time>
   <energy>
    <i name="e_fr_energy">     -5.86483116 </i>
    <i name="e_wo_entrp">     -5.63915528 </i>
    <i name="e_0_energy">     -5.75199322 </i>
   </energy>
  </scstep>
  <scstep>
   <time name="dav">    0.65    0.65</time>
   <time name="total">    1.84    1.84</time>
   <energy>
    <i name="alphaZ">      0.03464772 </i>
    <i name="ewald">     16.83254528 </i>
    <i name="hartreedc">    -77.95258632 </i>
    <i name="XCdc">     14.86833456 </i>
    <i name="pawpsdc">     17.93243639 </i>
    <i name="pawaedc">    -17.98965061 </i>
    <i name="eentropy">     -0.22567587 </i>
    <i name="bandstr">    -58.93108592 </i>
    <i name="atom">     99.56620307 </i>
    <i name="e_fr_energy">     -5.86483171 </i>
    <i name="e_wo_entrp">     -5.63915583 </i>
    <i name="e_0_energy">     -5.75199377 </i>
   </energy>
  </scstep>
  <structure>
   <crystal>
    <varray name="basis" >
     <v>      15.00000000       0.00000000       0.00000000 </v>
     <v>       0.00000000      15.00000000       0.00000000 </v>
     <v>       0.00000000       0.00000000      20.00000000 </v>
    </varray>
    <i name="volume">   4500.00000000 </i>
    <varray name="rec_basis" >
     <v>       0.06666667      -0.00000000       0.00000000 </v>
     <v>       0.00000000       0.06666667       0.00000000 </v>
     <v>      -0.00000000      -0.00000000       0.05000000 </v>
    </varray>
   </crystal>
   <varray name="positions" >
    <v>       0.00000000       0.00000000       0.00000000 </v>
    <v>       0.00000000       0.00000000       0.12500000 </v>
    <v>       0.00000000       0.00000000       0.25000000 </v>
    <v>       0.00000000       0.00000000       0.37500000 </v>
    <v>       0.00000000       0.00000000       0.50000000 </v>
    <v>       0.00000000       0.00000000       0.62500000 </v>
    <v>       0.00000000       0.00000000       0.75000000 </v>
    <v>       0.00000000       0.00000000       0.87500000 </v>
   </varray>
  </structure>
  <varray name="forces" >
   <v>       0.00000000      -0.00000000       0.00000000 </v>
   <v>      -0.00000000       0.00000000       0.00000000 </v>
   <v>       0.00000000      -0.00000000       0.00000000 </v>
   <v>      -0.00000000      -0.00000000       0.00000000 </v>
   <v>      -0.00000000      -0.00000000       0.00000000 </v>
   <v>       0.00000000      -0.00000000      -0.00000000 </v>
   <v>      -0.00000000       0.00000000      -0.00000000 </v>
   <v>       0.00000000       0.00000000       0.00000000 </v>
  </varray>
  <varray name="stress" >
   <v>      -0.30750073      -0.00000000      -0.00000000 </v>
   <v>      -0.00000000      -0.30750073      -0.00000000 </v>
   <v>      -0.00000000      -0.00000000      -6.33684041 </v>
  </varray>
  <energy>
   <i name="e_fr_energy">     -5.86483171 </i>
   <i name="e_wo_entrp">     -5.75199377 </i>
   <i name="e_0_energy">     -0.22567587 </i>
  </energy>
  <time name="totalsc">   36.22   36.26</time>
  <eigenvalues>
   <array>
    <dimension dim="1">band</dimension>
    <dimension dim="2">kpoint</dimension>
    <dimension dim="3">spin</dimension>
    <field>eigene</field>
    <field>occ</field>
    <set>
     <set comment="spin 1">
      <set comment="kpoint 1">
       <r>   -7.7760    1.0000 </r>
       <r>   -7.4931    1.0000 </r>
       <r>   -7.4931    1.0000 </r>
       <r>   -6.7035    0.5000 </r>
       <r>   -6.7034    0.5000 </r>
       <r>   -5.6621    0.0000 </r>
       <r>   -5.6621    0.0000 </r>
       <r>   -5.0903    0.0000 </r>
       <r>   -0.1195    0.0000 </r>
       <r>   -0.0739    0.0000 </r>
       <r>   -0.0739    0.0000 </r>
       <r>    0.2500    0.0000 </r>
      </set>
     </set>
     <set comment="spin 2">
      <set comment="kpoint 1">
       <r>   -7.7760    1.0000 </r>
       <r>   -7.4931    1.0000 </r>
       <r>   -7.4931    1.0000 </r>
       <r>   -6.7035    0.5000 </r>
       <r>   -6.7034    0.5000 </r>
       <r>   -5.6621    0.0000 </r>
       <r>   -5.6621    0.0000 </r>
       <r>   -5.0903    0.0000 </r>
       <r>   -0.1189    0.0000 </r>
       <r>   -0.0739    0.0000 </r>
       <r>   -0.0739    0.0000 </r>
       <r>    0.2506    0.0000 </r>
      </set>
     </set>
    </set>
   </array>
  </eigenvalues>
  <separator name="orbital magnetization" >
   <v name="MAGDIPOLOUT">      0.00000000      0.00000000      0.00000000</v>
  </separator>
  <dos>
   <i name="efermi">     -6.70345348 </i>
   <total>
    <array>
     <dimension dim="1">gridpoints</dimension>
     <dimension dim="2">spin</dimension>
     <field>energy</field>
     <field>total</field>
     <field>integrated</field>
     <set>
      <set comment="spin 1">
       <r>    -9.7760     0.0000     0.0000 </r>
       <r>    -9.7359     0.0000     0.0000 </r>
       <r>    -9.6958     0.0000     0.0000 </r>
       <r>    -9.6557     0.0000     0.0000 </r>
       <r>    -9.6156     0.0000     0.0000 </r>
       <r>    -9.5755     0.0000     0.0000 </r>
       <r>    -9.5354     0.0000     0.0000 </r>
       <r>    -9.4954     0.0000     0.0000 </r>
       <r>    -9.4553     0.0000     0.0000 </r>
       <r>    -9.4152     0.0000     0.0000 </r>
       <r>    -9.3751     0.0000     0.0000 </r>
       <r>    -9.3350     0.0000     0.0000 </r>
       <r>    -9.2949     0.0000     0.0000 </r>
       <r>    -9.2548     0.0000     0.0000 </r>
       <r>    -9.2147     0.0000     0.0000 </r>
       <r>    -9.1746     0.0000     0.0000 </r>
       <r>    -9.1346     0.0000     0.0000 </r>
       <r>    -9.0945     0.0000     0.0000 </r>
       <r>    -9.0544     0.0000     0.0000 </r>
       <r>    -9.0143     0.0000     0.0000 </r>
       <r>    -8.9742     0.0000     0.0000 </r>
       <r>    -8.9341     0.0000     0.0000 </r>
       <r>    -8.8940     0.0000     0.0000 </r>
       <r>    -8.8539     0.0000     0.0000 </r>
       <r>    -8.8138     0.0000     0.0000 </r>
       <r>    -8.7738     0.0000     0.0000 </r>
       <r>    -8.7337     0.0000     0.0000 </r>
       <r>    -8.6936     0.0000     0.0000 </r>
       <r>    -8.6535     0.0000     0.0000 </r>
       <r>    -8.6134     0.0000     0.0000 </r>
       <r>    -8.5733     0.0000     0.0000 </r>
       <r>    -8.5332     0.0000     0.0000 </r>
       <r>    -8.4931     0.0000     0.0000 </r>
       <r>    -8.4531     0.0000     0.0000 </r>
       <r>    -8.4130     0.0001     0.0000 </r>
       <r>    -8.3729     0.0004     0.0000 </r>
       <r>    -8.3328     0.0014     0.0001 </r>
       <r>    -8.2927     0.0044     0.0003 </r>
       <r>    -8.2526     0.0123     0.0008 </r>
       <r>    -8.2125     0.0317     0.0020 </r>
       <r>    -8.1724     0.0757     0.0051 </r>
       <r>    -8.1323     0.1669     0.0118 </r>
       <r>    -8.0923     0.3397     0.0254 </r>
       <r>    -8.0522     0.6388     0.0510 </r>
       <r>    -8.0121     1.1107     0.0955 </r>
       <r>    -7.9720     1.7873     0.1672 </r>
       <r>    -7.9319     2.6665     0.2741 </r>
       <r>    -7.8918     3.6994     0.4224 </r>
       <r>    -7.8517     4.7965     0.6146 </r>
       <r>    -7.8116     5.8582     0.8495 </r>
       <r>    -7.7715     6.8189     1.1229 </r>
       <r>    -7.7315     7.6812     1.4308 </r>
       <r>    -7.6914     8.5119     1.7720 </r>
       <r>    -7.6513     9.3923     2.1485 </r>
       <r>    -7.6112    10.3420     2.5631 </r>
       <r>    -7.5711    11.2634     3.0147 </r>
       <r>    -7.5310    11.9458     3.4936 </r>
       <r>    -7.4909    12.1399     3.9802 </r>
       <r>    -7.4508    11.6669     4.4479 </r>
       <r>    -7.4107    10.5055     4.8691 </r>
       <r>    -7.3707     8.8110     5.2223 </r>
       <r>    -7.3306     6.8580     5.4972 </r>
       <r>    -7.2905     4.9438     5.6954 </r>
       <r>    -7.2504     3.2984     5.8277 </r>
       <r>    -7.2103     2.0410     5.9095 </r>
       <r>    -7.1702     1.1863     5.9570 </r>
       <r>    -7.1301     0.6862     5.9845 </r>
       <r>    -7.0900     0.4798     6.0038 </r>
       <r>    -7.0499     0.5320     6.0251 </r>
       <r>    -7.0099     0.8519     6.0593 </r>
       <r>    -6.9698     1.4884     6.1189 </r>
       <r>    -6.9297     2.5013     6.2192 </r>
       <r>    -6.8896     3.9154     6.3762 </r>
       <r>    -6.8495     5.6692     6.6034 </r>
       <r>    -6.8094     7.5817     6.9074 </r>
       <r>    -6.7693     9.3624     7.2827 </r>
       <r>    -6.7292    10.6745     7.7106 </r>
       <r>    -6.6892    11.2369     8.1611 </r>
       <r>    -6.6491    10.9215     8.5989 </r>
       <r>    -6.6090     9.8005     8.9918 </r>
       <r>    -6.5689     8.1200     9.3173 </r>
       <r>    -6.5288     6.2115     9.5663 </r>
       <r>    -6.4887     4.3870     9.7422 </r>
       <r>    -6.4486     2.8607     9.8569 </r>
       <r>    -6.4085     1.7223     9.9259 </r>
       <r>    -6.3684     0.9574     9.9643 </r>
       <r>    -6.3284     0.4914     9.9840 </r>
       <r>    -6.2883     0.2332     9.9934 </r>
       <r>    -6.2482     0.1031     9.9975 </r>
       <r>    -6.2081     0.0451     9.9993 </r>
       <r>    -6.1680     0.0270    10.0004 </r>
       <r>    -6.1279     0.0373    10.0019 </r>
       <r>    -6.0878     0.0825    10.0052 </r>
       <r>    -6.0477     0.1892    10.0128 </r>
       <r>    -6.0076     0.4068    10.0291 </r>
       <r>    -5.9676     0.8093    10.0615 </r>
       <r>    -5.9275     1.4869    10.1211 </r>
       <r>    -5.8874     2.5222    10.2222 </r>
       <r>    -5.8473     3.9501    10.3806 </r>
       <r>    -5.8072     5.7117    10.6096 </r>
       <r>    -5.7671     7.6254    10.9153 </r>
       <r>    -5.7270     9.3993    11.2921 </r>
       <r>    -5.6869    10.6972    11.7209 </r>
       <r>    -5.6468    11.2411    12.1715 </r>
       <r>    -5.6068    10.9085    12.6089 </r>
       <r>    -5.5667     9.7793    13.0009 </r>
       <r>    -5.5266     8.1092    13.3260 </r>
       <r>    -5.4865     6.2435    13.5763 </r>
       <r>    -5.4464     4.5153    13.7573 </r>
       <r>    -5.4063     3.1702    13.8844 </r>
       <r>    -5.3662     2.3391    13.9781 </r>
       <r>    -5.3261     2.0495    14.0603 </r>
       <r>    -5.2860     2.2520    14.1506 </r>
       <r>    -5.2460     2.8404    14.2644 </r>
       <r>    -5.2059     3.6607    14.4112 </r>
       <r>    -5.1658     4.5226    14.5925 </r>
       <r>    -5.1257     5.2245    14.8019 </r>
       <r>    -5.0856     5.5953    15.0263 </r>
       <r>    -5.0455     5.5400    15.2483 </r>
       <r>    -5.0054     5.0667    15.4515 </r>
       <r>    -4.9653     4.2789    15.6230 </r>
       <r>    -4.9253     3.3365    15.7567 </r>
       <r>    -4.8852     2.4021    15.8530 </r>
       <r>    -4.8451     1.5967    15.9171 </r>
       <r>    -4.8050     0.9799    15.9563 </r>
       <r>    -4.7649     0.5552    15.9786 </r>
       <r>    -4.7248     0.2905    15.9902 </r>
       <r>    -4.6847     0.1403    15.9959 </r>
       <r>    -4.6446     0.0626    15.9984 </r>
       <r>    -4.6045     0.0258    15.9994 </r>
       <r>    -4.5645     0.0098    15.9998 </r>
       <r>    -4.5244     0.0034    15.9999 </r>
       <r>    -4.4843     0.0011    16.0000 </r>
       <r>    -4.4442     0.0003    16.0000 </r>
       <r>    -4.4041     0.0001    16.0000 </r>
       <r>    -4.3640     0.0000    16.0000 </r>
       <r>    -4.3239     0.0000    16.0000 </r>
       <r>    -4.2838     0.0000    16.0000 </r>
       <r>    -4.2437     0.0000    16.0000 </r>
       <r>    -4.2037     0.0000    16.0000 </r>
       <r>    -4.1636     0.0000    16.0000 </r>
       <r>    -4.1235     0.0000    16.0000 </r>
       <r>    -4.0834     0.0000    16.0000 </r>
       <r>    -4.0433     0.0000    16.0000 </r>
       <r>    -4.0032     0.0000    16.0000 </r>
       <r>    -3.9631     0.0000    16.0000 </r>
       <r>    -3.9230     0.0000    16.0000 </r>
       <r>    -3.8829     0.0000    16.0000 </r>
       <r>    -3.8429     0.0000    16.0000 </r>
       <r>    -3.8028     0.0000    16.0000 </r>
       <r>    -3.7627     0.0000    16.0000 </r>
       <r>    -3.7226     0.0000    16.0000 </r>
       <r>    -3.6825     0.0000    16.0000 </r>
       <r>    -3.6424     0.0000    16.0000 </r>
       <r>    -3.6023     0.0000    16.0000 </r>
       <r>    -3.5622     0.0000    16.0000 </r>
       <r>    -3.5222     0.0000    16.0000 </r>
       <r>    -3.4821     0.0000    16.0000 </r>
       <r>    -3.4420     0.0000    16.0000 </r>
       <r>    -3.4019     0.0000    16.0000 </r>
       <r>    -3.3618     0.0000    16.0000 </r>
       <r>    -3.3217     0.0000    16.0000 </r>
       <r>    -3.2816     0.0000    16.0000 </r>
       <r>    -3.2415     0.0000    16.0000 </r>
       <r>    -3.2014     0.0000    16.0000 </r>
       <r>    -3.1614     0.0000    16.0000 </r>
       <r>    -3.1213     0.0000    16.0000 </r>
       <r>    -3.0812     0.0000    16.0000 </r>
       <r>    -3.0411     0.0000    16.0000 </r>
       <r>    -3.0010     0.0000    16.0000 </r>
       <r>    -2.9609     0.0000    16.0000 </r>
       <r>    -2.9208     0.0000    16.0000 </r>
       <r>    -2.8807     0.0000    16.0000 </r>
       <r>    -2.8406     0.0000    16.0000 </r>
       <r>    -2.8006     0.0000    16.0000 </r>
       <r>    -2.7605     0.0000    16.0000 </r>
       <r>    -2.7204     0.0000    16.0000 </r>
       <r>    -2.6803     0.0000    16.0000 </r>
       <r>    -2.6402     0.0000    16.0000 </r>
       <r>    -2.6001     0.0000    16.0000 </r>
       <r>    -2.5600     0.0000    16.0000 </r>
       <r>    -2.5199     0.0000    16.0000 </r>
       <r>    -2.4798     0.0000    16.0000 </r>
       <r>    -2.4398     0.0000    16.0000 </r>
       <r>    -2.3997     0.0000    16.0000 </r>
       <r>    -2.3596     0.0000    16.0000 </r>
       <r>    -2.3195     0.0000    16.0000 </r>
       <r>    -2.2794     0.0000    16.0000 </r>
       <r>    -2.2393     0.0000    16.0000 </r>
       <r>    -2.1992     0.0000    16.0000 </r>
       <r>    -2.1591     0.0000    16.0000 </r>
       <r>    -2.1190     0.0000    16.0000 </r>
       <r>    -2.0790     0.0000    16.0000 </r>
       <r>    -2.0389     0.0000    16.0000 </r>
       <r>    -1.9988     0.0000    16.0000 </r>
       <r>    -1.9587     0.0000    16.0000 </r>
       <r>    -1.9186     0.0000    16.0000 </r>
       <r>    -1.8785     0.0000    16.0000 </r>
       <r>    -1.8384     0.0000    16.0000 </r>
       <r>    -1.7983     0.0000    16.0000 </r>
       <r>    -1.7583     0.0000    16.0000 </r>
       <r>    -1.7182     0.0000    16.0000 </r>
       <r>    -1.6781     0.0000    16.0000 </r>
       <r>    -1.6380     0.0000    16.0000 </r>
       <r>    -1.5979     0.0000    16.0000 </r>
       <r>    -1.5578     0.0000    16.0000 </r>
       <r>    -1.5177     0.0000    16.0000 </r>
       <r>    -1.4776     0.0000    16.0000 </r>
       <r>    -1.4375     0.0000    16.0000 </r>
       <r>    -1.3975     0.0000    16.0000 </r>
       <r>    -1.3574     0.0000    16.0000 </r>
       <r>    -1.3173     0.0000    16.0000 </r>
       <r>    -1.2772     0.0000    16.0000 </r>
       <r>    -1.2371     0.0000    16.0000 </r>
       <r>    -1.1970     0.0000    16.0000 </r>
       <r>    -1.1569     0.0000    16.0000 </r>
       <r>    -1.1168     0.0000    16.0000 </r>
       <r>    -1.0767     0.0000    16.0000 </r>
       <r>    -1.0367     0.0000    16.0000 </r>
       <r>    -0.9966     0.0000    16.0000 </r>
       <r>    -0.9565     0.0000    16.0000 </r>
       <r>    -0.9164     0.0000    16.0000 </r>
       <r>    -0.8763     0.0000    16.0000 </r>
       <r>    -0.8362     0.0000    16.0000 </r>
       <r>    -0.7961     0.0000    16.0000 </r>
       <r>    -0.7560     0.0002    16.0000 </r>
       <r>    -0.7159     0.0007    16.0000 </r>
       <r>    -0.6759     0.0022    16.0001 </r>
       <r>    -0.6358     0.0069    16.0004 </r>
       <r>    -0.5957     0.0201    16.0012 </r>
       <r>    -0.5556     0.0537    16.0034 </r>
       <r>    -0.5155     0.1329    16.0087 </r>
       <r>    -0.4754     0.3042    16.0209 </r>
       <r>    -0.4353     0.6443    16.0467 </r>
       <r>    -0.3952     1.2625    16.0973 </r>
       <r>    -0.3551     2.2887    16.1891 </r>
       <r>    -0.3151     3.8391    16.3430 </r>
       <r>    -0.2750     5.9585    16.5818 </r>
       <r>    -0.2349     8.5584    16.9249 </r>
       <r>    -0.1948    11.3788    17.3811 </r>
       <r>    -0.1547    14.0110    17.9428 </r>
       <r>    -0.1146    15.9938    18.5840 </r>
       <r>    -0.0745    16.9589    19.2638 </r>
       <r>    -0.0344    16.7668    19.9360 </r>
       <r>     0.0056    15.5652    20.5600 </r>
       <r>     0.0457    13.7350    21.1106 </r>
       <r>     0.0858    11.7466    21.5815 </r>
       <r>     0.1259     9.9908    21.9820 </r>
       <r>     0.1660     8.6612    22.3292 </r>
       <r>     0.2061     7.7338    22.6393 </r>
       <r>     0.2462     7.0364    22.9213 </r>
       <r>     0.2863     6.3624    23.1764 </r>
       <r>     0.3264     5.5704    23.3997 </r>
       <r>     0.3664     4.6304    23.5853 </r>
       <r>     0.4065     3.6090    23.7300 </r>
       <r>     0.4466     2.6188    23.8350 </r>
       <r>     0.4867     1.7621    23.9056 </r>
       <r>     0.5268     1.0972    23.9496 </r>
       <r>     0.5669     0.6315    23.9749 </r>
       <r>     0.6070     0.3358    23.9884 </r>
       <r>     0.6471     0.1649    23.9950 </r>
       <r>     0.6872     0.0748    23.9980 </r>
       <r>     0.7272     0.0313    23.9993 </r>
       <r>     0.7673     0.0121    23.9997 </r>
       <r>     0.8074     0.0043    23.9999 </r>
       <r>     0.8475     0.0014    24.0000 </r>
       <r>     0.8876     0.0004    24.0000 </r>
       <r>     0.9277     0.0001    24.0000 </r>
       <r>     0.9678     0.0000    24.0000 </r>
       <r>     1.0079     0.0000    24.0000 </r>
       <r>     1.0480     0.0000    24.0000 </r>
       <r>     1.0880     0.0000    24.0000 </r>
       <r>     1.1281     0.0000    24.0000 </r>
       <r>     1.1682     0.0000    24.0000 </r>
       <r>     1.2083     0.0000    24.0000 </r>
       <r>     1.2484     0.0000    24.0000 </r>
       <r>     1.2885     0.0000    24.0000 </r>
       <r>     1.3286     0.0000    24.0000 </r>
       <r>     1.3687     0.0000    24.0000 </r>
       <r>     1.4088     0.0000    24.0000 </r>
       <r>     1.4488     0.0000    24.0000 </r>
       <r>     1.4889     0.0000    24.0000 </r>
       <r>     1.5290     0.0000    24.0000 </r>
       <r>     1.5691     0.0000    24.0000 </r>
       <r>     1.6092     0.0000    24.0000 </r>
       <r>     1.6493     0.0000    24.0000 </r>
       <r>     1.6894     0.0000    24.0000 </r>
       <r>     1.7295     0.0000    24.0000 </r>
       <r>     1.7695     0.0000    24.0000 </r>
       <r>     1.8096     0.0000    24.0000 </r>
       <r>     1.8497     0.0000    24.0000 </r>
       <r>     1.8898     0.0000    24.0000 </r>
       <r>     1.9299     0.0000    24.0000 </r>
       <r>     1.9700     0.0000    24.0000 </r>
       <r>     2.0101     0.0000    24.0000 </r>
       <r>     2.0502     0.0000    24.0000 </r>
       <r>     2.0903     0.0000    24.0000 </r>
       <r>     2.1303     0.0000    24.0000 </r>
       <r>     2.1704     0.0000    24.0000 </r>
       <r>     2.2105     0.0000    24.0000 </r>
       <r>     2.2506     0.0000    24.0000 </r>
      </set>
      <set comment="spin 2">
       <r>    -9.7760     0.0000     0.0000 </r>
       <r>    -9.7359     0.0000     0.0000 </r>
       <r>    -9.6958     0.0000     0.0000 </r>
       <r>    -9.6557     0.0000     0.0000 </r>
       <r>    -9.6156     0.0000     0.0000 </r>
       <r>    -9.5755     0.0000     0.0000 </r>
       <r>    -9.5354     0.0000     0.0000 </r>
       <r>    -9.4954     0.0000     0.0000 </r>
       <r>    -9.4553     0.0000     0.0000 </r>
       <r>    -9.4152     0.0000     0.0000 </r>
       <r>    -9.3751     0.0000     0.0000 </r>
       <r>    -9.3350     0.0000     0.0000 </r>
       <r>    -9.2949     0.0000     0.0000 </r>
       <r>    -9.2548     0.0000     0.0000 </r>
       <r>    -9.2147     0.0000     0.0000 </r>
       <r>    -9.1746     0.0000     0.0000 </r>
       <r>    -9.1346     0.0000     0.0000 </r>
       <r>    -9.0945     0.0000     0.0000 </r>
       <r>    -9.0544     0.0000     0.0000 </r>
       <r>    -9.0143     0.0000     0.0000 </r>
       <r>    -8.9742     0.0000     0.0000 </r>
       <r>    -8.9341     0.0000     0.0000 </r>
       <r>    -8.8940     0.0000     0.0000 </r>
       <r>    -8.8539     0.0000     0.0000 </r>
       <r>    -8.8138     0.0000     0.0000 </r>
       <r>    -8.7738     0.0000     0.0000 </r>
       <r>    -8.7337     0.0000     0.0000 </r>
       <r>    -8.6936     0.0000     0.0000 </r>
       <r>    -8.6535     0.0000     0.0000 </r>
       <r>    -8.6134     0.0000     0.0000 </r>
       <r>    -8.5733     0.0000     0.0000 </r>
       <r>    -8.5332     0.0000     0.0000 </r>
       <r>    -8.4931     0.0000     0.0000 </r>
       <r>    -8.4531     0.0000     0.0000 </r>
       <r>    -8.4130     0.0001     0.0000 </r>
       <r>    -8.3729     0.0004     0.0000 </r>
       <r>    -8.3328     0.0014     0.0001 </r>
       <r>    -8.2927     0.0044     0.0003 </r>
       <r>    -8.2526     0.0123     0.0008 </r>
       <r>    -8.2125     0.0317     0.0020 </r>
       <r>    -8.1724     0.0757     0.0051 </r>
       <r>    -8.1323     0.1669     0.0118 </r>
       <r>    -8.0923     0.3397     0.0254 </r>
       <r>    -8.0522     0.6388     0.0510 </r>
       <r>    -8.0121     1.1107     0.0955 </r>
       <r>    -7.9720     1.7873     0.1672 </r>
       <r>    -7.9319     2.6665     0.2741 </r>
       <r>    -7.8918     3.6994     0.4224 </r>
       <r>    -7.8517     4.7966     0.6146 </r>
       <r>    -7.8116     5.8582     0.8495 </r>
       <r>    -7.7715     6.8189     1.1229 </r>
       <r>    -7.7315     7.6812     1.4308 </r>
       <r>    -7.6914     8.5120     1.7720 </r>
       <r>    -7.6513     9.3923     2.1485 </r>
       <r>    -7.6112    10.3420     2.5631 </r>
       <r>    -7.5711    11.2634     3.0147 </r>
       <r>    -7.5310    11.9458     3.4936 </r>
       <r>    -7.4909    12.1399     3.9802 </r>
       <r>    -7.4508    11.6669     4.4479 </r>
       <r>    -7.4107    10.5055     4.8691 </r>
       <r>    -7.3707     8.8109     5.2223 </r>
       <r>    -7.3306     6.8580     5.4972 </r>
       <r>    -7.2905     4.9437     5.6954 </r>
       <r>    -7.2504     3.2984     5.8277 </r>
       <r>    -7.2103     2.0409     5.9095 </r>
       <r>    -7.1702     1.1862     5.9570 </r>
       <r>    -7.1301     0.6862     5.9845 </r>
       <r>    -7.0900     0.4798     6.0038 </r>
       <r>    -7.0499     0.5320     6.0251 </r>
       <r>    -7.0099     0.8519     6.0593 </r>
       <r>    -6.9698     1.4884     6.1189 </r>
       <r>    -6.9297     2.5013     6.2192 </r>
       <r>    -6.8896     3.9154     6.3762 </r>
       <r>    -6.8495     5.6692     6.6034 </r>
       <r>    -6.8094     7.5818     6.9074 </r>
       <r>    -6.7693     9.3624     7.2827 </r>
       <r>    -6.7292    10.6746     7.7106 </r>
       <r>    -6.6892    11.2369     8.1611 </r>
       <r>    -6.6491    10.9215     8.5989 </r>
       <r>    -6.6090     9.8005     8.9918 </r>
       <r>    -6.5689     8.1199     9.3173 </r>
       <r>    -6.5288     6.2114     9.5663 </r>
       <r>    -6.4887     4.3870     9.7422 </r>
       <r>    -6.4486     2.8607     9.8569 </r>
       <r>    -6.4085     1.7223     9.9259 </r>
       <r>    -6.3684     0.9574     9.9643 </r>
       <r>    -6.3284     0.4914     9.9840 </r>
       <r>    -6.2883     0.2332     9.9934 </r>
       <r>    -6.2482     0.1031     9.9975 </r>
       <r>    -6.2081     0.0451     9.9993 </r>
       <r>    -6.1680     0.0270    10.0004 </r>
       <r>    -6.1279     0.0373    10.0019 </r>
       <r>    -6.0878     0.0825    10.0052 </r>
       <r>    -6.0477     0.1892    10.0128 </r>
       <r>    -6.0076     0.4069    10.0291 </r>
       <r>    -5.9676     0.8094    10.0615 </r>
       <r>    -5.9275     1.4869    10.1211 </r>
       <r>    -5.8874     2.5222    10.2223 </r>
       <r>    -5.8473     3.9501    10.3806 </r>
       <r>    -5.8072     5.7117    10.6096 </r>
       <r>    -5.7671     7.6254    10.9153 </r>
       <r>    -5.7270     9.3993    11.2921 </r>
       <r>    -5.6869    10.6972    11.7209 </r>
       <r>    -5.6468    11.2411    12.1716 </r>
       <r>    -5.6068    10.9084    12.6089 </r>
       <r>    -5.5667     9.7793    13.0009 </r>
       <r>    -5.5266     8.1091    13.3260 </r>
       <r>    -5.4865     6.2434    13.5763 </r>
       <r>    -5.4464     4.5153    13.7573 </r>
       <r>    -5.4063     3.1702    13.8844 </r>
       <r>    -5.3662     2.3390    13.9781 </r>
       <r>    -5.3261     2.0495    14.0603 </r>
       <r>    -5.2860     2.2521    14.1506 </r>
       <r>    -5.2460     2.8404    14.2644 </r>
       <r>    -5.2059     3.6607    14.4112 </r>
       <r>    -5.1658     4.5226    14.5925 </r>
       <r>    -5.1257     5.2245    14.8019 </r>
       <r>    -5.0856     5.5953    15.0263 </r>
       <r>    -5.0455     5.5400    15.2483 </r>
       <r>    -5.0054     5.0667    15.4515 </r>
       <r>    -4.9653     4.2788    15.6230 </r>
       <r>    -4.9253     3.3364    15.7568 </r>
       <r>    -4.8852     2.4020    15.8530 </r>
       <r>    -4.8451     1.5967    15.9171 </r>
       <r>    -4.8050     0.9799    15.9563 </r>
       <r>    -4.7649     0.5552    15.9786 </r>
       <r>    -4.7248     0.2905    15.9902 </r>
       <r>    -4.6847     0.1403    15.9959 </r>
       <r>    -4.6446     0.0626    15.9984 </r>
       <r>    -4.6045     0.0258    15.9994 </r>
       <r>    -4.5645     0.0098    15.9998 </r>
       <r>    -4.5244     0.0034    15.9999 </r>
       <r>    -4.4843     0.0011    16.0000 </r>
       <r>    -4.4442     0.0003    16.0000 </r>
       <r>    -4.4041     0.0001    16.0000 </r>
       <r>    -4.3640     0.0000    16.0000 </r>
       <r>    -4.3239     0.0000    16.0000 </r>
       <r>    -4.2838     0.0000    16.0000 </r>
       <r>    -4.2437     0.0000    16.0000 </r>
       <r>    -4.2037     0.0000    16.0000 </r>
       <r>    -4.1636     0.0000    16.0000 </r>
       <r>    -4.1235     0.0000    16.0000 </r>
       <r>    -4.0834     0.0000    16.0000 </r>
       <r>    -4.0433     0.0000    16.0000 </r>
       <r>    -4.0032     0.0000    16.0000 </r>
       <r>    -3.9631     0.0000    16.0000 </r>
       <r>    -3.9230     0.0000    16.0000 </r>
       <r>    -3.8829     0.0000    16.0000 </r>
       <r>    -3.8429     0.0000    16.0000 </r>
       <r>    -3.8028     0.0000    16.0000 </r>
       <r>    -3.7627     0.0000    16.0000 </r>
       <r>    -3.7226     0.0000    16.0000 </r>
       <r>    -3.6825     0.0000    16.0000 </r>
       <r>    -3.6424     0.0000    16.0000 </r>
       <r>    -3.6023     0.0000    16.0000 </r>
       <r>    -3.5622     0.0000    16.0000 </r>
       <r>    -3.5222     0.0000    16.0000 </r>
       <r>    -3.4821     0.0000    16.0000 </r>
       <r>    -3.4420     0.0000    16.0000 </r>
       <r>    -3.4019     0.0000    16.0000 </r>
       <r>    -3.3618     0.0000    16.0000 </r>
       <r>    -3.3217     0.0000    16.0000 </r>
       <r>    -3.2816     0.0000    16.0000 </r>
       <r>    -3.2415     0.0000    16.0000 </r>
       <r>    -3.2014     0.0000    16.0000 </r>
       <r>    -3.1614     0.0000    16.0000 </r>
       <r>    -3.1213     0.0000    16.0000 </r>
       <r>    -3.0812     0.0000    16.0000 </r>
       <r>    -3.0411     0.0000    16.0000 </r>
       <r>    -3.0010     0.0000    16.0000 </r>
       <r>    -2.9609     0.0000    16.0000 </r>
       <r>    -2.9208     0.0000    16.0000 </r>
       <r>    -2.8807     0.0000    16.0000 </r>
       <r>    -2.8406     0.0000    16.0000 </r>
       <r>    -2.8006     0.0000    16.0000 </r>
       <r>    -2.7605     0.0000    16.0000 </r>
       <r>    -2.7204     0.0000    16.0000 </r>
       <r>    -2.6803     0.0000    16.0000 </r>
       <r>    -2.6402     0.0000    16.0000 </r>
       <r>    -2.6001     0.0000    16.0000 </r>
       <r>    -2.5600     0.0000    16.0000 </r>
       <r>    -2.5199     0.0000    16.0000 </r>
       <r>    -2.4798     0.0000    16.0000 </r>
       <r>    -2.4398     0.0000    16.0000 </r>
       <r>    -2.3997     0.0000    16.0000 </r>
       <r>    -2.3596     0.0000    16.0000 </r>
       <r>    -2.3195     0.0000    16.0000 </r>
       <r>    -2.2794     0.0000    16.0000 </r>
       <r>    -2.2393     0.0000    16.0000 </r>
       <r>    -2.1992     0.0000    16.0000 </r>
       <r>    -2.1591     0.0000    16.0000 </r>
       <r>    -2.1190     0.0000    16.0000 </r>
       <r>    -2.0790     0.0000    16.0000 </r>
       <r>    -2.0389     0.0000    16.0000 </r>
       <r>    -1.9988     0.0000    16.0000 </r>
       <r>    -1.9587     0.0000    16.0000 </r>
       <r>    -1.9186     0.0000    16.0000 </r>
       <r>    -1.8785     0.0000    16.0000 </r>
       <r>    -1.8384     0.0000    16.0000 </r>
       <r>    -1.7983     0.0000    16.0000 </r>
       <r>    -1.7583     0.0000    16.0000 </r>
       <r>    -1.7182     0.0000    16.0000 </r>
       <r>    -1.6781     0.0000    16.0000 </r>
       <r>    -1.6380     0.0000    16.0000 </r>
       <r>    -1.5979     0.0000    16.0000 </r>
       <r>    -1.5578     0.0000    16.0000 </r>
       <r>    -1.5177     0.0000    16.0000 </r>
       <r>    -1.4776     0.0000    16.0000 </r>
       <r>    -1.4375     0.0000    16.0000 </r>
       <r>    -1.3975     0.0000    16.0000 </r>
       <r>    -1.3574     0.0000    16.0000 </r>
       <r>    -1.3173     0.0000    16.0000 </r>
       <r>    -1.2772     0.0000    16.0000 </r>
       <r>    -1.2371     0.0000    16.0000 </r>
       <r>    -1.1970     0.0000    16.0000 </r>
       <r>    -1.1569     0.0000    16.0000 </r>
       <r>    -1.1168     0.0000    16.0000 </r>
       <r>    -1.0767     0.0000    16.0000 </r>
       <r>    -1.0367     0.0000    16.0000 </r>
       <r>    -0.9966     0.0000    16.0000 </r>
       <r>    -0.9565     0.0000    16.0000 </r>
       <r>    -0.9164     0.0000    16.0000 </r>
       <r>    -0.8763     0.0000    16.0000 </r>
       <r>    -0.8362     0.0000    16.0000 </r>
       <r>    -0.7961     0.0000    16.0000 </r>
       <r>    -0.7560     0.0002    16.0000 </r>
       <r>    -0.7159     0.0006    16.0000 </r>
       <r>    -0.6759     0.0022    16.0001 </r>
       <r>    -0.6358     0.0069    16.0004 </r>
       <r>    -0.5957     0.0199    16.0012 </r>
       <r>    -0.5556     0.0533    16.0033 </r>
       <r>    -0.5155     0.1319    16.0086 </r>
       <r>    -0.4754     0.3023    16.0207 </r>
       <r>    -0.4353     0.6408    16.0464 </r>
       <r>    -0.3952     1.2567    16.0968 </r>
       <r>    -0.3551     2.2800    16.1882 </r>
       <r>    -0.3151     3.8272    16.3416 </r>
       <r>    -0.2750     5.9442    16.5799 </r>
       <r>    -0.2349     8.5431    16.9224 </r>
       <r>    -0.1948    11.3649    17.3780 </r>
       <r>    -0.1547    14.0009    17.9393 </r>
       <r>    -0.1146    15.9891    18.5803 </r>
       <r>    -0.0745    16.9598    19.2602 </r>
       <r>    -0.0344    16.7718    19.9325 </r>
       <r>     0.0056    15.5715    20.5568 </r>
       <r>     0.0457    13.7397    21.1076 </r>
       <r>     0.0858    11.7478    21.5785 </r>
       <r>     0.1259     9.9882    21.9789 </r>
       <r>     0.1660     8.6566    22.3260 </r>
       <r>     0.2061     7.7299    22.6358 </r>
       <r>     0.2462     7.0358    22.9179 </r>
       <r>     0.2863     6.3667    23.1731 </r>
       <r>     0.3264     5.5798    23.3968 </r>
       <r>     0.3664     4.6433    23.5830 </r>
       <r>     0.4065     3.6232    23.7282 </r>
       <r>     0.4466     2.6321    23.8337 </r>
       <r>     0.4867     1.7732    23.9048 </r>
       <r>     0.5268     1.1054    23.9491 </r>
       <r>     0.5669     0.6370    23.9747 </r>
       <r>     0.6070     0.3391    23.9883 </r>
       <r>     0.6471     0.1667    23.9949 </r>
       <r>     0.6872     0.0757    23.9980 </r>
       <r>     0.7272     0.0317    23.9992 </r>
       <r>     0.7673     0.0123    23.9997 </r>
       <r>     0.8074     0.0044    23.9999 </r>
       <r>     0.8475     0.0014    24.0000 </r>
       <r>     0.8876     0.0004    24.0000 </r>
       <r>     0.9277     0.0001    24.0000 </r>
       <r>     0.9678     0.0000    24.0000 </r>
       <r>     1.0079     0.0000    24.0000 </r>
       <r>     1.0480     0.0000    24.0000 </r>
       <r>     1.0880     0.0000    24.0000 </r>
       <r>     1.1281     0.0000    24.0000 </r>
       <r>     1.1682     0.0000    24.0000 </r>
       <r>     1.2083     0.0000    24.0000 </r>
       <r>     1.2484     0.0000    24.0000 </r>
       <r>     1.2885     0.0000    24.0000 </r>
       <r>     1.3286     0.0000    24.0000 </r>
       <r>     1.3687     0.0000    24.0000 </r>
       <r>     1.4088     0.0000    24.0000 </r>
       <r>     1.4488     0.0000    24.0000 </r>
       <r>     1.4889     0.0000    24.0000 </r>
       <r>     1.5290     0.0000    24.0000 </r>
       <r>     1.5691     0.0000    24.0000 </r>
       <r>     1.6092     0.0000    24.0000 </r>
       <r>     1.6493     0.0000    24.0000 </r>
       <r>     1.6894     0.0000    24.0000 </r>
       <r>     1.7295     0.0000    24.0000 </r>
       <r>     1.7695     0.0000    24.0000 </r>
       <r>     1.8096     0.0000    24.0000 </r>
       <r>     1.8497     0.0000    24.0000 </r>
       <r>     1.8898     0.0000    24.0000 </r>
       <r>     1.9299     0.0000    24.0000 </r>
       <r>     1.9700     0.0000    24.0000 </r>
       <r>     2.0101     0.0000    24.0000 </r>
       <r>     2.0502     0.0000    24.0000 </r>
       <r>     2.0903     0.0000    24.0000 </r>
       <r>     2.1303     0.0000    24.0000 </r>
       <r>     2.1704     0.0000    24.0000 </r>
       <r>     2.2105     0.0000    24.0000 </r>
       <r>     2.2506     0.0000    24.0000 </r>
      </set>
     </set>
    </array>
   </total>
  </dos>
 </calculation>
 <structure name="finalpos" >
  <crystal>
   <varray name="basis" >
    <v>      15.00000000       0.00000000       0.00000000 </v>
    <v>       0.00000000      15.00000000       0.00000000 </v>
    <v>       0.00000000       0.00000000      20.00000000 </v>
   </varray>
   <i name="volume">   4500.00000000 </i>
   <varray name="rec_basis" >
    <v>       0.06666667      -0.00000000       0.00000000 </v>
    <v>       0.00000000       0.06666667       0.00000000 </v>
    <v>      -0.00000000      -0.00000000       0.05000000 </v>
   </varray>
  </crystal>
  <varray name="positions" >
   <v>       0.00000000       0.00000000       0.00000000 </v>
   <v>       0.00000000       0.00000000       0.12500000 </v>
   <v>       0.00000000       0.00000000       0.25000000 </v>
   <v>       0.00000000       0.00000000       0.37500000 </v>
   <v>       0.00000000       0.00000000       0.50000000 </v>
   <v>       0.00000000       0.00000000       0.62500000 </v>
   <v>       0.00000000       0.00000000       0.75000000 </v>
   <v>       0.00000000       0.00000000       0.87500000 </v>
  </varray>
 </structure>
</modeling>
