   8   8   0   0
  0.1575000E+03  0.1500000E-08  0.1500000E-08  0.5600000E-09  0.5000000E-15
  1.000000000000000E-004
  CAR 
 unknown system                          
      2.40766850    -22.81536568  301     -1.80064520      1.00000000
    -22.815  0.0000E+00  0.0000E+00  0.0000E+00  0.0000E+00
    -22.731  0.0000E+00  0.0000E+00  0.0000E+00  0.0000E+00
    -22.647  0.0000E+00  0.0000E+00  0.0000E+00  0.0000E+00
    -22.563  0.0000E+00  0.0000E+00  0.0000E+00  0.0000E+00
    -22.479  0.0000E+00  0.0000E+00  0.0000E+00  0.0000E+00
    -22.395  0.0000E+00  0.0000E+00  0.0000E+00  0.0000E+00
    -22.311  0.0000E+00  0.0000E+00  0.0000E+00  0.0000E+00
    -22.227  0.0000E+00  0.0000E+00  0.0000E+00  0.0000E+00
    -22.143  0.0000E+00  0.0000E+00  0.0000E+00  0.0000E+00
    -22.059  0.0000E+00  0.0000E+00  0.0000E+00  0.0000E+00
    -21.975  0.2641E-14  0.2641E-14  0.2220E-15  0.2220E-15
    -21.891  0.3433E-12  0.3433E-12  0.2909E-13  0.2909E-13
    -21.806  0.2841E-10  0.2841E-10  0.2418E-11  0.2418E-11
    -21.722  0.1663E-08  0.1663E-08  0.1422E-09  0.1422E-09
    -21.638  0.6874E-07  0.6874E-07  0.5922E-08  0.5921E-08
    -21.554  0.2007E-05  0.2007E-05  0.1747E-06  0.1747E-06
    -21.470  0.4143E-04  0.4143E-04  0.3658E-05  0.3658E-05
    -21.386  0.6048E-03  0.6048E-03  0.5450E-04  0.5450E-04
    -21.302  0.6247E-02  0.6247E-02  0.5798E-03  0.5798E-03
    -21.218  0.4570E-01  0.4570E-01  0.4422E-02  0.4422E-02
    -21.134  0.2368E+00  0.2368E+00  0.2433E-01  0.2433E-01
    -21.050  0.8696E+00  0.8696E+00  0.9744E-01  0.9744E-01
    -20.966  0.2265E+01  0.2265E+01  0.2878E+00  0.2878E+00
    -20.882  0.4183E+01  0.4183E+01  0.6395E+00  0.6395E+00
    -20.798  0.5481E+01  0.5481E+01  0.1100E+01  0.1100E+01
    -20.713  0.5096E+01  0.5096E+01  0.1529E+01  0.1529E+01
    -20.629  0.3362E+01  0.3362E+01  0.1812E+01  0.1812E+01
    -20.545  0.1573E+01  0.1573E+01  0.1944E+01  0.1944E+01
    -20.461  0.5221E+00  0.5221E+00  0.1988E+01  0.1988E+01
    -20.377  0.1228E+00  0.1229E+00  0.1998E+01  0.1998E+01
    -20.293  0.2048E-01  0.2048E-01  0.2000E+01  0.2000E+01
    -20.209  0.2419E-02  0.2419E-02  0.2000E+01  0.2000E+01
    -20.125  0.2022E-03  0.2022E-03  0.2000E+01  0.2000E+01
    -20.041  0.1196E-04  0.1196E-04  0.2000E+01  0.2000E+01
    -19.957  0.5001E-06  0.5001E-06  0.2000E+01  0.2000E+01
    -19.873  0.1478E-07  0.1478E-07  0.2000E+01  0.2000E+01
    -19.789  0.3085E-09  0.3085E-09  0.2000E+01  0.2000E+01
    -19.705  0.4545E-11  0.4548E-11  0.2000E+01  0.2000E+01
    -19.620  0.4754E-13  0.4754E-13  0.2000E+01  0.2000E+01
    -19.536  0.0000E+00  0.0000E+00  0.2000E+01  0.2000E+01
    -19.452  0.0000E+00  0.0000E+00  0.2000E+01  0.2000E+01
    -19.368  0.0000E+00  0.0000E+00  0.2000E+01  0.2000E+01
    -19.284  0.0000E+00  0.0000E+00  0.2000E+01  0.2000E+01
    -19.200  0.0000E+00  0.0000E+00  0.2000E+01  0.2000E+01
    -19.116  0.0000E+00  0.0000E+00  0.2000E+01  0.2000E+01
    -19.032  0.0000E+00  0.0000E+00  0.2000E+01  0.2000E+01
    -18.948  0.0000E+00  0.0000E+00  0.2000E+01  0.2000E+01
    -18.864  0.0000E+00  0.0000E+00  0.2000E+01  0.2000E+01
    -18.780  0.0000E+00  0.0000E+00  0.2000E+01  0.2000E+01
    -18.696  0.0000E+00  0.0000E+00  0.2000E+01  0.2000E+01
    -18.612  0.0000E+00  0.0000E+00  0.2000E+01  0.2000E+01
    -18.527  0.0000E+00  0.0000E+00  0.2000E+01  0.2000E+01
    -18.443  0.0000E+00  0.0000E+00  0.2000E+01  0.2000E+01
    -18.359  0.0000E+00  0.0000E+00  0.2000E+01  0.2000E+01
    -18.275  0.0000E+00  0.0000E+00  0.2000E+01  0.2000E+01
    -18.191  0.0000E+00  0.0000E+00  0.2000E+01  0.2000E+01
    -18.107  0.0000E+00  0.0000E+00  0.2000E+01  0.2000E+01
    -18.023  0.0000E+00  0.0000E+00  0.2000E+01  0.2000E+01
    -17.939  0.0000E+00  0.0000E+00  0.2000E+01  0.2000E+01
    -17.855  0.0000E+00  0.0000E+00  0.2000E+01  0.2000E+01
    -17.771  0.0000E+00  0.0000E+00  0.2000E+01  0.2000E+01
    -17.687  0.0000E+00  0.0000E+00  0.2000E+01  0.2000E+01
    -17.603  0.0000E+00  0.0000E+00  0.2000E+01  0.2000E+01
    -17.519  0.0000E+00  0.0000E+00  0.2000E+01  0.2000E+01
    -17.434  0.0000E+00  0.0000E+00  0.2000E+01  0.2000E+01
    -17.350  0.0000E+00  0.0000E+00  0.2000E+01  0.2000E+01
    -17.266  0.0000E+00  0.0000E+00  0.2000E+01  0.2000E+01
    -17.182  0.3169E-13  0.3169E-13  0.2000E+01  0.2000E+01
    -17.098  0.3386E-11  0.3386E-11  0.2000E+01  0.2000E+01
    -17.014  0.2482E-09  0.2482E-09  0.2000E+01  0.2000E+01
    -16.930  0.1285E-07  0.1285E-07  0.2000E+01  0.2000E+01
    -16.846  0.4699E-06  0.4699E-06  0.2000E+01  0.2000E+01
    -16.762  0.1214E-04  0.1214E-04  0.2000E+01  0.2000E+01
    -16.678  0.2218E-03  0.2218E-03  0.2000E+01  0.2000E+01
    -16.594  0.2866E-02  0.2866E-02  0.2000E+01  0.2000E+01
    -16.510  0.2621E-01  0.2621E-01  0.2002E+01  0.2002E+01
    -16.426  0.1698E+00  0.1698E+00  0.2017E+01  0.2017E+01
    -16.341  0.7791E+00  0.7791E+00  0.2082E+01  0.2082E+01
    -16.257  0.2535E+01  0.2535E+01  0.2295E+01  0.2295E+01
    -16.173  0.5848E+01  0.5848E+01  0.2787E+01  0.2787E+01
    -16.089  0.9570E+01  0.9570E+01  0.3592E+01  0.3592E+01
    -16.005  0.1111E+02  0.1111E+02  0.4526E+01  0.4526E+01
    -15.921  0.9154E+01  0.9154E+01  0.5296E+01  0.5296E+01
    -15.837  0.5350E+01  0.5350E+01  0.5745E+01  0.5745E+01
    -15.753  0.2218E+01  0.2218E+01  0.5932E+01  0.5932E+01
    -15.669  0.6521E+00  0.6521E+00  0.5987E+01  0.5987E+01
    -15.585  0.1359E+00  0.1359E+00  0.5998E+01  0.5998E+01
    -15.501  0.2007E-01  0.2007E-01  0.6000E+01  0.6000E+01
    -15.417  0.2098E-02  0.2098E-02  0.6000E+01  0.6000E+01
    -15.333  0.1552E-03  0.1552E-03  0.6000E+01  0.6000E+01
    -15.248  0.8126E-05  0.8126E-05  0.6000E+01  0.6000E+01
    -15.164  0.3007E-06  0.3007E-06  0.6000E+01  0.6000E+01
    -15.080  0.7861E-08  0.7862E-08  0.6000E+01  0.6000E+01
    -14.996  0.1451E-09  0.1451E-09  0.6000E+01  0.6000E+01
    -14.912  0.1891E-11  0.1891E-11  0.6000E+01  0.6000E+01
    -14.828  0.2113E-13  0.2113E-13  0.6000E+01  0.6000E+01
    -14.744  0.0000E+00  0.0000E+00  0.6000E+01  0.6000E+01
    -14.660  0.0000E+00  0.0000E+00  0.6000E+01  0.6000E+01
    -14.576  0.0000E+00  0.0000E+00  0.6000E+01  0.6000E+01
    -14.492  0.0000E+00  0.0000E+00  0.6000E+01  0.6000E+01
    -14.408  0.0000E+00  0.0000E+00  0.6000E+01  0.6000E+01
    -14.324  0.0000E+00  0.0000E+00  0.6000E+01  0.6000E+01
    -14.240  0.0000E+00  0.0000E+00  0.6000E+01  0.6000E+01
    -14.155  0.0000E+00  0.0000E+00  0.6000E+01  0.6000E+01
    -14.071  0.0000E+00  0.0000E+00  0.6000E+01  0.6000E+01
    -13.987  0.0000E+00  0.0000E+00  0.6000E+01  0.6000E+01
    -13.903  0.0000E+00  0.0000E+00  0.6000E+01  0.6000E+01
    -13.819  0.0000E+00  0.0000E+00  0.6000E+01  0.6000E+01
    -13.735  0.0000E+00  0.0000E+00  0.6000E+01  0.6000E+01
    -13.651  0.0000E+00  0.0000E+00  0.6000E+01  0.6000E+01
    -13.567  0.0000E+00  0.0000E+00  0.6000E+01  0.6000E+01
    -13.483  0.0000E+00  0.0000E+00  0.6000E+01  0.6000E+01
    -13.399  0.0000E+00  0.0000E+00  0.6000E+01  0.6000E+01
    -13.315  0.0000E+00  0.0000E+00  0.6000E+01  0.6000E+01
    -13.231  0.0000E+00  0.0000E+00  0.6000E+01  0.6000E+01
    -13.147  0.0000E+00  0.0000E+00  0.6000E+01  0.6000E+01
    -13.062  0.0000E+00  0.0000E+00  0.6000E+01  0.6000E+01
    -12.978  0.0000E+00  0.0000E+00  0.6000E+01  0.6000E+01
    -12.894  0.0000E+00  0.0000E+00  0.6000E+01  0.6000E+01
    -12.810  0.0000E+00  0.0000E+00  0.6000E+01  0.6000E+01
    -12.726  0.0000E+00  0.0000E+00  0.6000E+01  0.6000E+01
    -12.642  0.0000E+00  0.0000E+00  0.6000E+01  0.6000E+01
    -12.558  0.0000E+00  0.0000E+00  0.6000E+01  0.6000E+01
    -12.474  0.0000E+00  0.0000E+00  0.6000E+01  0.6000E+01
    -12.390  0.0000E+00  0.0000E+00  0.6000E+01  0.6000E+01
    -12.306  0.0000E+00  0.0000E+00  0.6000E+01  0.6000E+01
    -12.222  0.0000E+00  0.0000E+00  0.6000E+01  0.6000E+01
    -12.138  0.0000E+00  0.0000E+00  0.6000E+01  0.6000E+01
    -12.054  0.0000E+00  0.0000E+00  0.6000E+01  0.6000E+01
    -11.969  0.0000E+00  0.0000E+00  0.6000E+01  0.6000E+01
    -11.885  0.0000E+00  0.0000E+00  0.6000E+01  0.6000E+01
    -11.801  0.0000E+00  0.0000E+00  0.6000E+01  0.6000E+01
    -11.717  0.0000E+00  0.0000E+00  0.6000E+01  0.6000E+01
    -11.633  0.0000E+00  0.0000E+00  0.6000E+01  0.6000E+01
    -11.549  0.0000E+00  0.0000E+00  0.6000E+01  0.6000E+01
    -11.465  0.0000E+00  0.0000E+00  0.6000E+01  0.6000E+01
    -11.381  0.0000E+00  0.0000E+00  0.6000E+01  0.6000E+01
    -11.297  0.0000E+00  0.0000E+00  0.6000E+01  0.6000E+01
    -11.213  0.0000E+00  0.0000E+00  0.6000E+01  0.6000E+01
    -11.129  0.0000E+00  0.0000E+00  0.6000E+01  0.6000E+01
    -11.045  0.0000E+00  0.0000E+00  0.6000E+01  0.6000E+01
    -10.961  0.0000E+00  0.0000E+00  0.6000E+01  0.6000E+01
    -10.876  0.0000E+00  0.0000E+00  0.6000E+01  0.6000E+01
    -10.792  0.0000E+00  0.0000E+00  0.6000E+01  0.6000E+01
    -10.708  0.0000E+00  0.0000E+00  0.6000E+01  0.6000E+01
    -10.624  0.0000E+00  0.0000E+00  0.6000E+01  0.6000E+01
    -10.540  0.0000E+00  0.0000E+00  0.6000E+01  0.6000E+01
    -10.456  0.0000E+00  0.0000E+00  0.6000E+01  0.6000E+01
    -10.372  0.0000E+00  0.0000E+00  0.6000E+01  0.6000E+01
    -10.288  0.0000E+00  0.0000E+00  0.6000E+01  0.6000E+01
    -10.204  0.0000E+00  0.0000E+00  0.6000E+01  0.6000E+01
    -10.120  0.0000E+00  0.0000E+00  0.6000E+01  0.6000E+01
    -10.036  0.0000E+00  0.0000E+00  0.6000E+01  0.6000E+01
     -9.952  0.0000E+00  0.0000E+00  0.6000E+01  0.6000E+01
     -9.868  0.0000E+00  0.0000E+00  0.6000E+01  0.6000E+01
     -9.783  0.0000E+00  0.0000E+00  0.6000E+01  0.6000E+01
     -9.699  0.0000E+00  0.0000E+00  0.6000E+01  0.6000E+01
     -9.615  0.0000E+00  0.0000E+00  0.6000E+01  0.6000E+01
     -9.531  0.0000E+00  0.0000E+00  0.6000E+01  0.6000E+01
     -9.447  0.0000E+00  0.0000E+00  0.6000E+01  0.6000E+01
     -9.363  0.0000E+00  0.0000E+00  0.6000E+01  0.6000E+01
     -9.279  0.0000E+00  0.0000E+00  0.6000E+01  0.6000E+01
     -9.195  0.0000E+00  0.0000E+00  0.6000E+01  0.6000E+01
     -9.111  0.0000E+00  0.0000E+00  0.6000E+01  0.6000E+01
     -9.027  0.0000E+00  0.0000E+00  0.6000E+01  0.6000E+01
     -8.943  0.0000E+00  0.0000E+00  0.6000E+01  0.6000E+01
     -8.859  0.0000E+00  0.0000E+00  0.6000E+01  0.6000E+01
     -8.775  0.0000E+00  0.0000E+00  0.6000E+01  0.6000E+01
     -8.690  0.0000E+00  0.0000E+00  0.6000E+01  0.6000E+01
     -8.606  0.0000E+00  0.0000E+00  0.6000E+01  0.6000E+01
     -8.522  0.0000E+00  0.0000E+00  0.6000E+01  0.6000E+01
     -8.438  0.0000E+00  0.0000E+00  0.6000E+01  0.6000E+01
     -8.354  0.0000E+00  0.0000E+00  0.6000E+01  0.6000E+01
     -8.270  0.0000E+00  0.0000E+00  0.6000E+01  0.6000E+01
     -8.186  0.0000E+00  0.0000E+00  0.6000E+01  0.6000E+01
     -8.102  0.0000E+00  0.0000E+00  0.6000E+01  0.6000E+01
     -8.018  0.0000E+00  0.0000E+00  0.6000E+01  0.6000E+01
     -7.934  0.0000E+00  0.0000E+00  0.6000E+01  0.6000E+01
     -7.850  0.0000E+00  0.0000E+00  0.6000E+01  0.6000E+01
     -7.766  0.0000E+00  0.0000E+00  0.6000E+01  0.6000E+01
     -7.682  0.0000E+00  0.0000E+00  0.6000E+01  0.6000E+01
     -7.597  0.0000E+00  0.0000E+00  0.6000E+01  0.6000E+01
     -7.513  0.0000E+00  0.0000E+00  0.6000E+01  0.6000E+01
     -7.429  0.0000E+00  0.0000E+00  0.6000E+01  0.6000E+01
     -7.345  0.0000E+00  0.0000E+00  0.6000E+01  0.6000E+01
     -7.261  0.0000E+00  0.0000E+00  0.6000E+01  0.6000E+01
     -7.177  0.0000E+00  0.0000E+00  0.6000E+01  0.6000E+01
     -7.093  0.0000E+00  0.0000E+00  0.6000E+01  0.6000E+01
     -7.009  0.0000E+00  0.0000E+00  0.6000E+01  0.6000E+01
     -6.925  0.0000E+00  0.0000E+00  0.6000E+01  0.6000E+01
     -6.841  0.0000E+00  0.0000E+00  0.6000E+01  0.6000E+01
     -6.757  0.0000E+00  0.0000E+00  0.6000E+01  0.6000E+01
     -6.673  0.0000E+00  0.0000E+00  0.6000E+01  0.6000E+01
     -6.589  0.0000E+00  0.0000E+00  0.6000E+01  0.6000E+01
     -6.504  0.0000E+00  0.0000E+00  0.6000E+01  0.6000E+01
     -6.420  0.0000E+00  0.0000E+00  0.6000E+01  0.6000E+01
     -6.336  0.0000E+00  0.0000E+00  0.6000E+01  0.6000E+01
     -6.252  0.0000E+00  0.0000E+00  0.6000E+01  0.6000E+01
     -6.168  0.0000E+00  0.0000E+00  0.6000E+01  0.6000E+01
     -6.084  0.0000E+00  0.0000E+00  0.6000E+01  0.6000E+01
     -6.000  0.0000E+00  0.0000E+00  0.6000E+01  0.6000E+01
     -5.916  0.0000E+00  0.0000E+00  0.6000E+01  0.6000E+01
     -5.832  0.0000E+00  0.0000E+00  0.6000E+01  0.6000E+01
     -5.748  0.0000E+00  0.0000E+00  0.6000E+01  0.6000E+01
     -5.664  0.0000E+00  0.0000E+00  0.6000E+01  0.6000E+01
     -5.580  0.0000E+00  0.0000E+00  0.6000E+01  0.6000E+01
     -5.496  0.0000E+00  0.0000E+00  0.6000E+01  0.6000E+01
     -5.411  0.0000E+00  0.0000E+00  0.6000E+01  0.6000E+01
     -5.327  0.0000E+00  0.0000E+00  0.6000E+01  0.6000E+01
     -5.243  0.0000E+00  0.0000E+00  0.6000E+01  0.6000E+01
     -5.159  0.0000E+00  0.0000E+00  0.6000E+01  0.6000E+01
     -5.075  0.0000E+00  0.0000E+00  0.6000E+01  0.6000E+01
     -4.991  0.0000E+00  0.0000E+00  0.6000E+01  0.6000E+01
     -4.907  0.0000E+00  0.0000E+00  0.6000E+01  0.6000E+01
     -4.823  0.0000E+00  0.0000E+00  0.6000E+01  0.6000E+01
     -4.739  0.0000E+00  0.0000E+00  0.6000E+01  0.6000E+01
     -4.655  0.0000E+00  0.0000E+00  0.6000E+01  0.6000E+01
     -4.571  0.0000E+00  0.0000E+00  0.6000E+01  0.6000E+01
     -4.487  0.0000E+00  0.0000E+00  0.6000E+01  0.6000E+01
     -4.403  0.0000E+00  0.0000E+00  0.6000E+01  0.6000E+01
     -4.318  0.0000E+00  0.0000E+00  0.6000E+01  0.6000E+01
     -4.234  0.0000E+00  0.0000E+00  0.6000E+01  0.6000E+01
     -4.150  0.0000E+00  0.0000E+00  0.6000E+01  0.6000E+01
     -4.066  0.0000E+00  0.0000E+00  0.6000E+01  0.6000E+01
     -3.982  0.0000E+00  0.0000E+00  0.6000E+01  0.6000E+01
     -3.898  0.0000E+00  0.0000E+00  0.6000E+01  0.6000E+01
     -3.814  0.0000E+00  0.0000E+00  0.6000E+01  0.6000E+01
     -3.730  0.0000E+00  0.0000E+00  0.6000E+01  0.6000E+01
     -3.646  0.0000E+00  0.0000E+00  0.6000E+01  0.6000E+01
     -3.562  0.0000E+00  0.0000E+00  0.6000E+01  0.6000E+01
     -3.478  0.0000E+00  0.0000E+00  0.6000E+01  0.6000E+01
     -3.394  0.0000E+00  0.0000E+00  0.6000E+01  0.6000E+01
     -3.310  0.0000E+00  0.0000E+00  0.6000E+01  0.6000E+01
     -3.225  0.0000E+00  0.0000E+00  0.6000E+01  0.6000E+01
     -3.141  0.0000E+00  0.0000E+00  0.6000E+01  0.6000E+01
     -3.057  0.0000E+00  0.0000E+00  0.6000E+01  0.6000E+01
     -2.973  0.0000E+00  0.0000E+00  0.6000E+01  0.6000E+01
     -2.889  0.7923E-14  0.7923E-14  0.6000E+01  0.6000E+01
     -2.805  0.8530E-12  0.8530E-12  0.6000E+01  0.6000E+01
     -2.721  0.7054E-10  0.7054E-10  0.6000E+01  0.6000E+01
     -2.637  0.4118E-08  0.4118E-08  0.6000E+01  0.6000E+01
     -2.553  0.1703E-06  0.1703E-06  0.6000E+01  0.6000E+01
     -2.469  0.4995E-05  0.4995E-05  0.6000E+01  0.6000E+01
     -2.385  0.1041E-03  0.1041E-03  0.6000E+01  0.6000E+01
     -2.301  0.1542E-02  0.1542E-02  0.6000E+01  0.6000E+01
     -2.217  0.1629E-01  0.1629E-01  0.6002E+01  0.6002E+01
     -2.132  0.1229E+00  0.1229E+00  0.6012E+01  0.6012E+01
     -2.048  0.6630E+00  0.6630E+00  0.6068E+01  0.6068E+01
     -1.964  0.2565E+01  0.2565E+01  0.6283E+01  0.6283E+01
     -1.880  0.7125E+01  0.7125E+01  0.6882E+01  0.6882E+01
     -1.796  0.1424E+02  0.1424E+02  0.8080E+01  0.8080E+01
     -1.712  0.2053E+02  0.2053E+02  0.9806E+01  0.9806E+01
     -1.628  0.2153E+02  0.2153E+02  0.1162E+02  0.1162E+02
     -1.544  0.1693E+02  0.1693E+02  0.1304E+02  0.1304E+02
     -1.460  0.1118E+02  0.1118E+02  0.1398E+02  0.1398E+02
     -1.376  0.7861E+01  0.7861E+01  0.1464E+02  0.1464E+02
     -1.292  0.6470E+01  0.6470E+01  0.1518E+02  0.1518E+02
     -1.208  0.4973E+01  0.4973E+01  0.1560E+02  0.1560E+02
     -1.124  0.2957E+01  0.2957E+01  0.1585E+02  0.1585E+02
     -1.039  0.1275E+01  0.1275E+01  0.1596E+02  0.1596E+02
     -0.955  0.3918E+00  0.3918E+00  0.1599E+02  0.1599E+02
     -0.871  0.8545E-01  0.8546E-01  0.1600E+02  0.1600E+02
     -0.787  0.1321E-01  0.1321E-01  0.1600E+02  0.1600E+02
     -0.703  0.1448E-02  0.1448E-02  0.1600E+02  0.1600E+02
     -0.619  0.1429E-03  0.1428E-03  0.1600E+02  0.1600E+02
     -0.535  0.4985E-03  0.4971E-03  0.1600E+02  0.1600E+02
     -0.451  0.5596E-02  0.5581E-02  0.1600E+02  0.1600E+02
     -0.367  0.4531E-01  0.4519E-01  0.1600E+02  0.1600E+02
     -0.283  0.2616E+00  0.2610E+00  0.1603E+02  0.1603E+02
     -0.199  0.1078E+01  0.1076E+01  0.1612E+02  0.1612E+02
     -0.115  0.3182E+01  0.3177E+01  0.1638E+02  0.1638E+02
     -0.031  0.6747E+01  0.6739E+01  0.1695E+02  0.1695E+02
      0.054  0.1043E+02  0.1042E+02  0.1783E+02  0.1783E+02
      0.138  0.1226E+02  0.1225E+02  0.1886E+02  0.1886E+02
      0.222  0.1224E+02  0.1225E+02  0.1989E+02  0.1989E+02
      0.306  0.1220E+02  0.1221E+02  0.2091E+02  0.2091E+02
      0.390  0.1241E+02  0.1242E+02  0.2196E+02  0.2196E+02
      0.474  0.1106E+02  0.1107E+02  0.2289E+02  0.2289E+02
      0.558  0.7603E+01  0.7606E+01  0.2353E+02  0.2353E+02
      0.642  0.3819E+01  0.3821E+01  0.2385E+02  0.2385E+02
      0.726  0.1378E+01  0.1379E+01  0.2396E+02  0.2396E+02
      0.810  0.3551E+00  0.3555E+00  0.2399E+02  0.2399E+02
      0.894  0.6523E-01  0.6533E-01  0.2400E+02  0.2400E+02
      0.978  0.8532E-02  0.8548E-02  0.2400E+02  0.2400E+02
      1.062  0.7938E-03  0.7956E-03  0.2400E+02  0.2400E+02
      1.147  0.5249E-04  0.5263E-04  0.2400E+02  0.2400E+02
      1.231  0.2465E-05  0.2472E-05  0.2400E+02  0.2400E+02
      1.315  0.8210E-07  0.8237E-07  0.2400E+02  0.2400E+02
      1.399  0.1938E-08  0.1946E-08  0.2400E+02  0.2400E+02
      1.483  0.3241E-10  0.3254E-10  0.2400E+02  0.2400E+02
      1.567  0.3829E-12  0.3856E-12  0.2400E+02  0.2400E+02
      1.651  0.2641E-14  0.2641E-14  0.2400E+02  0.2400E+02
      1.735  0.0000E+00  0.0000E+00  0.2400E+02  0.2400E+02
      1.819  0.0000E+00  0.0000E+00  0.2400E+02  0.2400E+02
      1.903  0.0000E+00  0.0000E+00  0.2400E+02  0.2400E+02
      1.987  0.0000E+00  0.0000E+00  0.2400E+02  0.2400E+02
      2.071  0.0000E+00  0.0000E+00  0.2400E+02  0.2400E+02
      2.155  0.0000E+00  0.0000E+00  0.2400E+02  0.2400E+02
      2.240  0.0000E+00  0.0000E+00  0.2400E+02  0.2400E+02
      2.324  0.0000E+00  0.0000E+00  0.2400E+02  0.2400E+02
      2.408  0.0000E+00  0.0000E+00  0.2400E+02  0.2400E+02
