    8    8    1    2
  0.1575000E+03  0.1500000E-08  0.1500000E-08  0.5600000E-09  0.5000000E-15
  1.000000000000000E-004
  CAR 
 unknown system                          
      8      1     12
 
  0.0000000E+00  0.0000000E+00  0.0000000E+00  0.1000000E+01
    1      -20.815366    -20.815365   1.000000   1.000000
    2      -16.052629    -16.052628   1.000000   1.000000
    3      -16.052629    -16.052628   1.000000   1.000000
    4       -1.733396     -1.733395   0.317206   0.317204
    5       -1.733396     -1.733395   0.317206   0.317204
    6       -1.672581     -1.672582   0.182586   0.182588
    7       -1.672581     -1.672582   0.182586   0.182588
    8       -1.327978     -1.327975   0.000415   0.000415
    9        0.049521      0.049558   0.000000   0.000000
   10        0.095172      0.095468   0.000000   0.000000
   11        0.370137      0.370153   0.000000   0.000000
   12        0.407576      0.407668   0.000000   0.000000
