       N       E                     dE             d eps       ncg     rms          rms(c)
DAV:   1     0.381551714337E+01    0.38155E+01   -0.16181E+03    80   0.186E+02
DAV:   2    -0.135591481810E+02   -0.17375E+02   -0.17065E+02    68   0.678E+01
DAV:   3    -0.138875815099E+02   -0.32843E+00   -0.32702E+00    64   0.969E+00
DAV:   4    -0.140811984044E+02   -0.19362E+00   -0.15356E-01    48   0.112E+00
DAV:   5    -0.141182357228E+02   -0.37037E-01   -0.34402E-01    64   0.944E-01    0.112E+01
DAV:   6    -0.108720527500E+02    0.32462E+01   -0.10293E+00    48   0.477E+00    0.643E+00
DAV:   7    -0.123408465159E+02   -0.14688E+01   -0.36001E+01    48   0.775E+00    0.675E+00
DAV:   8    -0.109773608031E+02    0.13635E+01   -0.21917E-01    48   0.186E+00    0.559E+00
DAV:   9    -0.102877435287E+02    0.68962E+00   -0.14865E-01    56   0.125E+00    0.493E+00
DAV:  10    -0.108680661732E+02   -0.58032E+00   -0.31620E+01    48   0.553E+00    0.507E+00
DAV:  11    -0.106798060112E+02    0.18826E+00   -0.12543E-02    48   0.674E-01    0.457E+00
DAV:  12    -0.101247654715E+02    0.55504E+00   -0.11580E-01    48   0.175E+00    0.350E+00
DAV:  13    -0.996890933905E+01    0.15586E+00   -0.12568E-02    48   0.572E-01    0.319E+00
DAV:  14    -0.984458045370E+01    0.12433E+00   -0.75541E-03    48   0.405E-01    0.297E+00
DAV:  15    -0.972590126707E+01    0.11868E+00   -0.23041E+00    48   0.147E+00    0.285E+00
DAV:  16    -0.981481230818E+01   -0.88911E-01   -0.38862E+00    48   0.157E+00    0.290E+00
DAV:  17    -0.966082666018E+01    0.15399E+00   -0.24865E-02    48   0.782E-01    0.920E-01
DAV:  18    -0.967854514874E+01   -0.17718E-01   -0.55746E-04    48   0.176E-01    0.127E+00
DAV:  19    -0.966975486376E+01    0.87903E-02   -0.23820E-04    48   0.762E-02    0.938E-01
DAV:  20    -0.967614516105E+01   -0.63903E-02   -0.11709E-04    48   0.695E-02    0.113E+00
DAV:  21    -0.967591754351E+01    0.22762E-03   -0.21402E-05    48   0.244E-02    0.117E+00
DAV:  22    -0.966357777575E+01    0.12340E-01   -0.16033E-03    48   0.182E-01    0.234E-01
DAV:  23    -0.966814679867E+01   -0.45690E-02   -0.37728E-04    48   0.108E-01    0.474E-01
DAV:  24    -0.966657670858E+01    0.15701E-02   -0.16593E-04    48   0.599E-02    0.171E-01
DAV:  25    -0.966733091169E+01   -0.75420E-03   -0.40298E-05    56   0.341E-02    0.248E-01
DAV:  26    -0.966704495289E+01    0.28596E-03   -0.52133E-05    48   0.337E-02    0.977E-02
DAV:  27    -0.966722176231E+01   -0.17681E-03   -0.16313E-05    56   0.167E-02    0.104E-01
DAV:  28    -0.966732214818E+01   -0.10039E-03   -0.74070E-05    56   0.394E-02    0.278E-02
DAV:  29    -0.966735725291E+01   -0.35105E-04   -0.89563E-06    48   0.115E-02    0.136E-02
DAV:  30    -0.966736592288E+01   -0.86700E-05   -0.22533E-06    56   0.623E-03    0.784E-03
DAV:  31    -0.966739841733E+01   -0.32494E-04   -0.19005E-05    48   0.197E-02    0.479E-02
DAV:  32    -0.966737870253E+01    0.19715E-04   -0.15979E-06    48   0.569E-03    0.265E-02
DAV:  33    -0.966737627159E+01    0.24309E-05   -0.13879E-07    48   0.146E-03    0.180E-02
DAV:  34    -0.966737733350E+01   -0.10619E-05   -0.66820E-08    56   0.108E-03    0.176E-02
DAV:  35    -0.966738041897E+01   -0.30855E-05   -0.21223E-07    48   0.196E-03    0.242E-02
DAV:  36    -0.966737657270E+01    0.38463E-05   -0.17668E-07    56   0.185E-03    0.152E-02
DAV:  37    -0.966737540841E+01    0.11643E-05   -0.15887E-07    32   0.163E-03    0.599E-03
DAV:  38    -0.966737604589E+01   -0.63749E-06   -0.93270E-08    56   0.115E-03
   1 F= -.96673760E+01 E0= -.94915053E+01  d E =-.351741E+00  mag=     0.0000
