 vasp.5.4.4.18Apr17-6-g9f103f2a35 (build Aug 24 2024 05:40:03) complex          
  
 executed on           IFC22_IMPI date 2024.11.22  21:38:19
 running on    4 total cores
 distrk:  each k-point on    4 cores,    1 groups
 distr:  one band on NCORES_PER_BAND=   1 cores,    4 groups


--------------------------------------------------------------------------------------------------------


 INCAR:
 POTCAR:    PAW_PBE H 15Jun2001                   
 POTCAR:    PAW_PBE H 15Jun2001                   
   VRHFIN =H: ultrasoft test                                                    
   LEXCH  = PE                                                                  
   EATOM  =    12.4884 eV,    0.9179 Ry                                         
                                                                                
   TITEL  = PAW_PBE H 15Jun2001                                                 
   LULTRA =        F    use ultrasoft PP ?                                      
   IUNSCR =        0    unscreen: 0-lin 1-nonlin 2-no                           
   RPACOR =    0.000    partial core radius                                     
   POMASS =    1.000; ZVAL   =    1.000    mass and valenz                      
   RCORE  =    1.100    outmost cutoff radius                                   
   RWIGS  =    0.700; RWIGS  =    0.370    wigner-seitz radius (au A)           
   ENMAX  =  250.000; ENMIN  =  200.000 eV                                      
   RCLOC  =    0.701    cutoff for local pot                                    
   LCOR   =        T    correct aug charges                                     
   LPAW   =        T    paw PP                                                  
   EAUG   =  400.000                                                            
   RMAX   =    1.123    core radius for proj-oper                               
   RAUG   =    1.200    factor for augmentation sphere                          
   RDEP   =    1.112    radius for radial grids                                 
   RDEPT  =    0.926    core radius for aug-charge                              
                                                                                
   Atomic configuration                                                         
    2 entries                                                                   
     n  l   j            E        occ.                                          
     1  0  0.50        -6.4927   1.0000                                         
     2  1  0.50        -3.4015   0.0000                                         
   Description                                                                  
     l       E           TYP  RCUT    TYP  RCUT                                 
     0     -6.4927494     23  1.100                                             
     0      6.8029130     23  1.100                                             
     1     -4.0817478     23  1.100                                             
  local pseudopotential read in
  atomic valenz-charges read in
  non local Contribution for L=           0  read in
    real space projection operators read in
  non local Contribution for L=           0  read in
    real space projection operators read in
  non local Contribution for L=           1  read in
    real space projection operators read in
    PAW grid and wavefunctions read in
 
   number of l-projection  operators is LMAX  =           3
   number of lm-projection operators is LMMAX =           5
 
  PAW_PBE H 15Jun2001                   :
 energy of atom  1       EATOM=  -12.4884
 kinetic energy error for atom=    0.0426 (will be added to EATOM!!)
 
 
 POSCAR: H8                                      
  positions in direct lattice
  No initial velocities read in
 exchange correlation table for  LEXCH =        8
   RHO(1)=    0.500       N(1)  =     2000
   RHO(2)=  100.500       N(2)  =     4000
 


--------------------------------------------------------------------------------------------------------


 ion  position               nearest neighbor table
   1  0.000  0.000  0.000-   2 0.70   8 0.70
   2  0.000  0.000  0.125-   1 0.70   3 0.70
   3  0.000  0.000  0.250-   2 0.70   4 0.70
   4  0.000  0.000  0.375-   3 0.70   5 0.70
   5  0.000  0.000  0.500-   4 0.70   6 0.70
   6  0.000  0.000  0.625-   5 0.70   7 0.70
   7  0.000  0.000  0.750-   6 0.70   8 0.70
   8  0.000  0.000  0.875-   1 0.70   7 0.70
 
  LATTYP: Found a simple tetragonal cell.
 ALAT       =    15.0000000000
 C/A-ratio  =     0.3733333333
  
  Lattice vectors:
  
 A1 = (  15.0000000000,   0.0000000000,   0.0000000000)
 A2 = (   0.0000000000,  15.0000000000,   0.0000000000)
 A3 = (   0.0000000000,   0.0000000000,   5.6000000000)


Analysis of symmetry for initial positions (statically):
=====================================================================
 Subroutine PRICEL returns following result:
 
  LATTYP: Found a simple tetragonal cell.
 ALAT       =    15.0000000000
 C/A-ratio  =     0.0466666667
  
  Lattice vectors:
  
 A1 = (  15.0000000000,   0.0000000000,   0.0000000000)
 A2 = (   0.0000000000,  15.0000000000,   0.0000000000)
 A3 = (   0.0000000000,   0.0000000000,   0.7000000000)
 
   8 primitive cells build up your supercell.
 

 Routine SETGRP: Setting up the symmetry group for a 
 simple tetragonal supercell.


 Subroutine GETGRP returns: Found 16 space group operations
 (whereof 16 operations were pure point group operations)
 out of a pool of 16 trial point group operations.


The static configuration has the point symmetry D_4h.


Analysis of symmetry for dynamics (positions and initial velocities):
=====================================================================
 Subroutine PRICEL returns following result:
 
  LATTYP: Found a simple tetragonal cell.
 ALAT       =    15.0000000000
 C/A-ratio  =     0.0466666667
  
  Lattice vectors:
  
 A1 = (  15.0000000000,   0.0000000000,   0.0000000000)
 A2 = (   0.0000000000,  15.0000000000,   0.0000000000)
 A3 = (   0.0000000000,   0.0000000000,   0.7000000000)
 
   8 primitive cells build up your supercell.
 

 Routine SETGRP: Setting up the symmetry group for a 
 simple tetragonal supercell.


 Subroutine GETGRP returns: Found 16 space group operations
 (whereof 16 operations were pure point group operations)
 out of a pool of 16 trial point group operations.


The dynamic configuration has the point symmetry D_4h.


Analysis of structural, dynamic, and magnetic symmetry:
=====================================================================
 Subroutine PRICEL returns following result:
 
  LATTYP: Found a simple tetragonal cell.
 ALAT       =    15.0000000000
 C/A-ratio  =     0.0466666667
  
  Lattice vectors:
  
 A1 = (  15.0000000000,   0.0000000000,   0.0000000000)
 A2 = (   0.0000000000,  15.0000000000,   0.0000000000)
 A3 = (   0.0000000000,   0.0000000000,   0.7000000000)
 
   8 primitive cells build up your supercell.
 

 Routine SETGRP: Setting up the symmetry group for a 
 simple tetragonal supercell.


 Subroutine GETGRP returns: Found 16 space group operations
 (whereof 16 operations were pure point group operations)
 out of a pool of 16 trial point group operations.


The magnetic configuration has the point symmetry D_4h.


 Subroutine INISYM returns: Found 16 space group operations
 (whereof 16 operations are pure point group operations),
 and found     8 'primitive' translations

 
 
 KPOINTS: Automatic kpoint scheme                 

Automatic generation of k-mesh.
Space group operators:
 irot       det(A)        alpha          n_x          n_y          n_z        tau_x        tau_y        tau_z
    1     1.000000     0.000000     1.000000     0.000000     0.000000     0.000000     0.000000     0.000000
    2    -1.000000     0.000000     1.000000     0.000000     0.000000     0.000000     0.000000     0.000000
    3     1.000000    90.000000     0.000000     0.000000    -1.000000     0.000000     0.000000     0.000000
    4    -1.000000    90.000000     0.000000     0.000000    -1.000000     0.000000     0.000000     0.000000
    5     1.000000   180.000000    -0.000000    -0.000000     1.000000     0.000000     0.000000     0.000000
    6    -1.000000   180.000000    -0.000000    -0.000000     1.000000     0.000000     0.000000     0.000000
    7     1.000000    90.000000    -0.000000    -0.000000     1.000000     0.000000     0.000000     0.000000
    8    -1.000000    90.000000    -0.000000    -0.000000     1.000000     0.000000     0.000000     0.000000
    9     1.000000   180.000000     0.000000     1.000000     0.000000     0.000000     0.000000     0.000000
   10    -1.000000   180.000000     0.000000     1.000000     0.000000     0.000000     0.000000     0.000000
   11     1.000000   180.000000     0.707107     0.707107     0.000000     0.000000     0.000000     0.000000
   12    -1.000000   180.000000     0.707107     0.707107     0.000000     0.000000     0.000000     0.000000
   13     1.000000   180.000000     1.000000    -0.000000     0.000000     0.000000     0.000000     0.000000
   14    -1.000000   180.000000     1.000000    -0.000000     0.000000     0.000000     0.000000     0.000000
   15     1.000000   180.000000     0.707107    -0.707107     0.000000     0.000000     0.000000     0.000000
   16    -1.000000   180.000000     0.707107    -0.707107     0.000000     0.000000     0.000000     0.000000
 
 Subroutine IBZKPT returns following result:
 ===========================================
 
 Found      1 irreducible k-points:
 
 Following reciprocal coordinates:
            Coordinates               Weight
  0.000000  0.000000  0.000000      1.000000
 
 Following cartesian coordinates:
            Coordinates               Weight
  0.000000  0.000000  0.000000      1.000000
 


--------------------------------------------------------------------------------------------------------




 Dimension of arrays:
   k-points           NKPTS =      1   k-points in BZ     NKDIM =      1   number of bands    NBANDS=     12
   number of dos      NEDOS =    301   number of ions     NIONS =      8
   non local maximal  LDIM  =      3   non local SUM 2l+1 LMDIM =      5
   total plane-waves  NPLWV =  98304
   max r-space proj   IRMAX =      1   max aug-charges    IRDMAX=    579
   dimension x,y,z NGX =    64 NGY =   64 NGZ =   24
   dimension x,y,z NGXF=   128 NGYF=  128 NGZF=   48
   support grid    NGXF=   128 NGYF=  128 NGZF=   48
   ions per type =               8
   NGX,Y,Z   is equivalent  to a cutoff of   7.09,  7.09,  7.12 a.u.
   NGXF,Y,Z  is equivalent  to a cutoff of  14.19, 14.19, 14.25 a.u.

 SYSTEM =  unknown system                          
 POSCAR =  H8                                      

 Startparameter for this run:
   NWRITE =      2    write-flag & timer
   PREC   = normal    normal or accurate (medium, high low for compatibility)
   ISTART =      0    job   : 0-new  1-cont  2-samecut
   ICHARG =      2    charge: 1-file 2-atom 10-const
   ISPIN  =      2    spin polarized calculation?
   LNONCOLLINEAR =      F non collinear calculations
   LSORBIT =      F    spin-orbit coupling
   INIWAV =      1    electr: 0-lowe 1-rand  2-diag
   LASPH  =      F    aspherical Exc in radial PAW
   METAGGA=      F    non-selfconsistent MetaGGA calc.

 Electronic Relaxation 1
   ENCUT  =  300.0 eV  22.05 Ry    4.70 a.u.  21.18 21.18  7.91*2*pi/ulx,y,z
   ENINI  =  300.0     initial cutoff
   ENAUG  =  400.0 eV  augmentation charge cutoff
   NELM   =    100;   NELMIN=  2; NELMDL= -5     # of ELM steps 
   EDIFF  = 0.1E-05   stopping-criterion for ELM
   LREAL  =      F    real-space projection
   NLSPLINE    = F    spline interpolate recip. space projectors
   LCOMPAT=      F    compatible to vasp.4.4
   GGA_COMPAT  = T    GGA compatible to vasp.4.4-vasp.4.6
   LMAXPAW     = -100 max onsite density
   LMAXMIX     =    2 max onsite mixed and CHGCAR
   VOSKOWN=      0    Vosko Wilk Nusair interpolation
   ROPT   =    0.00000
 Ionic relaxation
   EDIFFG = 0.1E-04   stopping-criterion for IOM
   NSW    =      0    number of steps for IOM
   NBLOCK =      1;   KBLOCK =      1    inner block; outer block 
   IBRION =     -1    ionic relax: 0-MD 1-quasi-New 2-CG
   NFREE  =      0    steps in history (QN), initial steepest desc. (CG)
   ISIF   =      2    stress and relaxation
   IWAVPR =     10    prediction:  0-non 1-charg 2-wave 3-comb
   ISYM   =      2    0-nonsym 1-usesym 2-fastsym
   LCORR  =      T    Harris-Foulkes like correction to forces

   POTIM  = 0.5000    time-step for ionic-motion
   TEIN   =    0.0    initial temperature
   TEBEG  =    0.0;   TEEND  =   0.0 temperature during run
   SMASS  =  -3.00    Nose mass-parameter (am)
   estimated Nose-frequenzy (Omega)   =  0.10E-29 period in steps =****** mass=  -0.514E-26a.u.
   SCALEE = 1.0000    scale energy and forces
   NPACO  =    256;   APACO  = 16.0  distance and # of slots for P.C.
   PSTRESS=    0.0 pullay stress

  Mass of Ions in am
   POMASS =   1.00
  Ionic Valenz
   ZVAL   =   1.00
  Atomic Wigner-Seitz radii
   RWIGS  =  -1.00
  virtual crystal weights 
   VCA    =   1.00
   NELECT =       8.0000    total number of electrons
   NUPDOWN=       0.0000    fix difference up-down

 DOS related values:
   EMIN   =  10.00;   EMAX   =-10.00  energy-range for DOS
   EFERMI =   0.00
   ISMEAR =     0;   SIGMA  =   0.20  broadening in eV -4-tet -1-fermi 0-gaus

 Electronic relaxation 2 (details)
   IALGO  =     38    algorithm
   LDIAG  =      T    sub-space diagonalisation (order eigenvalues)
   LSUBROT=      F    optimize rotation matrix (better conditioning)
   TURBO    =      0    0=normal 1=particle mesh
   IRESTART =      0    0=no restart 2=restart with 2 vectors
   NREBOOT  =      0    no. of reboots
   NMIN     =      0    reboot dimension
   EREF     =   0.00    reference energy to select bands
   IMIX   =      4    mixing-type and parameters
     AMIX     =   0.40;   BMIX     =  1.00
     AMIX_MAG =   1.60;   BMIX_MAG =  1.00
     AMIN     =   0.10
     WC   =   100.;   INIMIX=   1;  MIXPRE=   1;  MAXMIX= -45

 Intra band minimization:
   WEIMIN = 0.0000     energy-eigenvalue tresh-hold
   EBREAK =  0.21E-07  absolut break condition
   DEPER  =   0.30     relativ break condition  

   TIME   =   0.40     timestep for ELM

  volume/ion in A,a.u.               =     157.50      1062.86
  Fermi-wavevector in a.u.,A,eV,Ry     =   0.303143  0.572858  1.250319  0.091896
  Thomas-Fermi vector in A             =   1.174026
 
 Write flags
   LWAVE        =      F    write WAVECAR
   LDOWNSAMPLE  =      F    k-point downsampling of WAVECAR
   LCHARG       =      F    write CHGCAR
   LVTOT        =      F    write LOCPOT, total local potential
   LVHAR        =      F    write LOCPOT, Hartree potential only
   LELF         =      F    write electronic localiz. function (ELF)
   LORBIT       =      0    0 simple, 1 ext, 2 COOP (PROOUT), +10 PAW based schemes


 Dipole corrections
   LMONO  =      F    monopole corrections only (constant potential shift)
   LDIPOL =      F    correct potential (dipole corrections)
   IDIPOL =      0    1-x, 2-y, 3-z, 4-all directions 
   EPSILON=  1.0000000 bulk dielectric constant

 Exchange correlation treatment:
   GGA     =    --    GGA type
   LEXCH   =     8    internal setting for exchange type
   VOSKOWN=      0    Vosko Wilk Nusair interpolation
   LHFCALC =     F    Hartree Fock is set to
   LHFONE  =     F    Hartree Fock one center treatment
   AEXX    =    0.0000 exact exchange contribution

 Linear response parameters
   LEPSILON=     F    determine dielectric tensor
   LRPA    =     F    only Hartree local field effects (RPA)
   LNABLA  =     F    use nabla operator in PAW spheres
   LVEL    =     F    velocity operator in full k-point grid
   LINTERFAST=   F  fast interpolation
   KINTER  =     0    interpolate to denser k-point grid
   CSHIFT  =0.1000    complex shift for real part using Kramers Kronig
   OMEGAMAX=  -1.0    maximum frequency
   DEG_THRESHOLD= 0.2000000E-02 threshold for treating states as degnerate
   RTIME   =   -0.100 relaxation time in fs
  (WPLASMAI=    0.000 imaginary part of plasma frequency in eV, 0.658/RTIME)
   DFIELD  = 0.0000000 0.0000000 0.0000000 field for delta impulse in time
 
 Orbital magnetization related:
   ORBITALMAG=     F  switch on orbital magnetization
   LCHIMAG   =     F  perturbation theory with respect to B field
   DQ        =  0.001000  dq finite difference perturbation B field
   LLRAUG    =     F  two centre corrections for induced B field



--------------------------------------------------------------------------------------------------------


 Static calculation
 charge density and potential will be updated during run
 spin polarized calculation
 Variant of blocked Davidson
 Davidson routine will perform the subspace rotation
 perform sub-space diagonalisation
    after iterative eigenvector-optimisation
 modified Broyden-mixing scheme, WC =      100.0
 initial mixing is a Kerker type mixing with AMIX =  0.4000 and BMIX =      1.0000
 Hartree-type preconditioning will be used
 using additional bands            8
 reciprocal scheme for non local part
 calculate Harris-corrections to forces 
   (improved forces if not selfconsistent)
 use gradient corrections 
 use of overlap-Matrix (Vanderbilt PP)
 Gauss-broadening in eV      SIGMA  =   0.20


--------------------------------------------------------------------------------------------------------


  energy-cutoff  :      300.00
  volume of cell :     1260.00
      direct lattice vectors                 reciprocal lattice vectors
    15.000000000  0.000000000  0.000000000     0.066666667 -0.000000000  0.000000000
     0.000000000 15.000000000  0.000000000     0.000000000  0.066666667  0.000000000
     0.000000000  0.000000000  5.600000000    -0.000000000 -0.000000000  0.178571429

  length of vectors
    15.000000000 15.000000000  5.600000000     0.066666667  0.066666667  0.178571429


 
 k-points in units of 2pi/SCALE and weight: Automatic kpoint scheme                 
   0.00000000  0.00000000  0.00000000       1.000
 
 k-points in reciprocal lattice and weights: Automatic kpoint scheme                 
   0.00000000  0.00000000  0.00000000       1.000
 
 position of ions in fractional coordinates (direct lattice) 
   0.00000000  0.00000000  0.00000000
   0.00000000  0.00000000  0.12500000
   0.00000000  0.00000000  0.25000000
   0.00000000  0.00000000  0.37500000
   0.00000000  0.00000000  0.50000000
   0.00000000  0.00000000  0.62500000
   0.00000000  0.00000000  0.75000000
   0.00000000  0.00000000  0.87500000
 
 position of ions in cartesian coordinates  (Angst):
   0.00000000  0.00000000  0.00000000
   0.00000000  0.00000000  0.70000000
   0.00000000  0.00000000  1.40000000
   0.00000000  0.00000000  2.10000000
   0.00000000  0.00000000  2.80000000
   0.00000000  0.00000000  3.50000000
   0.00000000  0.00000000  4.20000000
   0.00000000  0.00000000  4.90000000
 


--------------------------------------------------------------------------------------------------------


 k-point  1 :   0.0000 0.0000 0.0000  plane waves:   14771

 maximum and minimum number of plane-waves per node :     14771    14771

 maximum number of plane-waves:     14771
 maximum index in each direction: 
   IXMAX=   21   IYMAX=   21   IZMAX=    7
   IXMIN=  -21   IYMIN=  -21   IZMIN=   -7


 serial   3D FFT for wavefunctions
 parallel 3D FFT for charge:
    minimum data exchange during FFTs selected (reduces bandwidth)


 total amount of memory used by VASP MPI-rank0    63826. kBytes
=======================================================================

   base      :      30000. kBytes
   nonl-proj :       2481. kBytes
   fftplans  :       7296. kBytes
   grid      :      22609. kBytes
   one-center:         19. kBytes
   wavefun   :       1421. kBytes
 
     INWAV:  cpu time    0.0000: real time    0.0000
 Broyden mixing: mesh for mixing (old mesh)
   NGX = 43   NGY = 43   NGZ = 15
  (NGX  =128   NGY  =128   NGZ  = 48)
  gives a total of  27735 points

 initial charge density was supplied:
 charge density of overlapping atoms calculated
 number of electron       8.0000000 magnetization       0.0000000
 keeping initial charge density in first step


--------------------------------------------------------------------------------------------------------


 Maximum index for augmentation-charges           79 (set IRDMAX)


--------------------------------------------------------------------------------------------------------


 First call to EWALD:  gamma=   0.164
 Maximum number of real-space cells 2x 2x 5
 Maximum number of reciprocal cells 4x 4x 2

    FEWALD:  cpu time    0.0017: real time    0.0017


--------------------------------------- Iteration      1(   1)  ---------------------------------------


    POTLOK:  cpu time    0.2680: real time    0.2679
    SETDIJ:  cpu time    0.0094: real time    0.0094
     EDDAV:  cpu time    0.2109: real time    0.2109
       DOS:  cpu time    0.0003: real time    0.0003
    --------------------------------------------
      LOOP:  cpu time    0.4886: real time    0.4885

 eigenvalue-minimisations  :    80
 total energy-change (2. order) : 0.3815517E+01  (-0.1618119E+03)
 number of electron       8.0000000 magnetization       0.0000000
 augmentation part        8.0000000 magnetization       0.0000000

 Free energy of the ion-electron system (eV)
  ---------------------------------------------------
  alpha Z        PSCENC =         0.12374184
  Ewald energy   TEWEN  =       269.60691640
  -Hartree energ DENC   =      -266.51076336
  -exchange      EXHF   =         0.00000000
  -V(xc)+E(xc)   XCENC  =        20.96624788
  PAW double counting   =        17.07221949      -17.14324176
  entropy T*S    EENTRO =        -0.05204666
  eigenvalues    EBANDS =      -119.81375976
  atomic energy  EATOM  =        99.56620307
  Solvation  Ediel_sol  =         0.00000000
  ---------------------------------------------------
  free energy    TOTEN  =         3.81551714 eV

  energy without entropy =        3.86756381  energy(sigma->0) =        3.84154047


--------------------------------------------------------------------------------------------------------




--------------------------------------- Iteration      1(   2)  ---------------------------------------


     EDDAV:  cpu time    0.1791: real time    0.1791
       DOS:  cpu time    0.0002: real time    0.0002
    --------------------------------------------
      LOOP:  cpu time    0.1793: real time    0.1792

 eigenvalue-minimisations  :    68
 total energy-change (2. order) :-0.1737467E+02  (-0.1706519E+02)
 number of electron       8.0000000 magnetization       0.0000000
 augmentation part        8.0000000 magnetization       0.0000000

 Free energy of the ion-electron system (eV)
  ---------------------------------------------------
  alpha Z        PSCENC =         0.12374184
  Ewald energy   TEWEN  =       269.60691640
  -Hartree energ DENC   =      -266.51076336
  -exchange      EXHF   =         0.00000000
  -V(xc)+E(xc)   XCENC  =        20.96624788
  PAW double counting   =        17.07221949      -17.14324176
  entropy T*S    EENTRO =        -0.00000000
  eigenvalues    EBANDS =      -137.24047175
  atomic energy  EATOM  =        99.56620307
  Solvation  Ediel_sol  =         0.00000000
  ---------------------------------------------------
  free energy    TOTEN  =       -13.55914818 eV

  energy without entropy =      -13.55914818  energy(sigma->0) =      -13.55914818


--------------------------------------------------------------------------------------------------------




--------------------------------------- Iteration      1(   3)  ---------------------------------------


     EDDAV:  cpu time    0.1704: real time    0.1703
       DOS:  cpu time    0.0002: real time    0.0002
    --------------------------------------------
      LOOP:  cpu time    0.1706: real time    0.1706

 eigenvalue-minimisations  :    64
 total energy-change (2. order) :-0.3284333E+00  (-0.3270204E+00)
 number of electron       8.0000000 magnetization       0.0000000
 augmentation part        8.0000000 magnetization       0.0000000

 Free energy of the ion-electron system (eV)
  ---------------------------------------------------
  alpha Z        PSCENC =         0.12374184
  Ewald energy   TEWEN  =       269.60691640
  -Hartree energ DENC   =      -266.51076336
  -exchange      EXHF   =         0.00000000
  -V(xc)+E(xc)   XCENC  =        20.96624788
  PAW double counting   =        17.07221949      -17.14324176
  entropy T*S    EENTRO =        -0.00922361
  eigenvalues    EBANDS =      -137.55968147
  atomic energy  EATOM  =        99.56620307
  Solvation  Ediel_sol  =         0.00000000
  ---------------------------------------------------
  free energy    TOTEN  =       -13.88758151 eV

  energy without entropy =      -13.87835790  energy(sigma->0) =      -13.88296971


--------------------------------------------------------------------------------------------------------




--------------------------------------- Iteration      1(   4)  ---------------------------------------


     EDDAV:  cpu time    0.1388: real time    0.1387
       DOS:  cpu time    0.0003: real time    0.0003
    --------------------------------------------
      LOOP:  cpu time    0.1390: real time    0.1390

 eigenvalue-minimisations  :    48
 total energy-change (2. order) :-0.1936169E+00  (-0.1535557E-01)
 number of electron       8.0000000 magnetization       0.0000000
 augmentation part        8.0000000 magnetization       0.0000000

 Free energy of the ion-electron system (eV)
  ---------------------------------------------------
  alpha Z        PSCENC =         0.12374184
  Ewald energy   TEWEN  =       269.60691640
  -Hartree energ DENC   =      -266.51076336
  -exchange      EXHF   =         0.00000000
  -V(xc)+E(xc)   XCENC  =        20.96624788
  PAW double counting   =        17.07221949      -17.14324176
  entropy T*S    EENTRO =        -0.22270730
  eigenvalues    EBANDS =      -137.53981467
  atomic energy  EATOM  =        99.56620307
  Solvation  Ediel_sol  =         0.00000000
  ---------------------------------------------------
  free energy    TOTEN  =       -14.08119840 eV

  energy without entropy =      -13.85849111  energy(sigma->0) =      -13.96984476


--------------------------------------------------------------------------------------------------------




--------------------------------------- Iteration      1(   5)  ---------------------------------------


     EDDAV:  cpu time    0.1710: real time    0.1710
       DOS:  cpu time    0.0003: real time    0.0003
    CHARGE:  cpu time    0.0765: real time    0.0764
    MIXING:  cpu time    0.0052: real time    0.0052
    --------------------------------------------
      LOOP:  cpu time    0.2530: real time    0.2529

 eigenvalue-minimisations  :    64
 total energy-change (2. order) :-0.3703732E-01  (-0.3440217E-01)
 number of electron       8.0000186 magnetization      -0.0000000
 augmentation part        0.2372715 magnetization      -0.0000554

 Broyden mixing:
  rms(total) = 0.11236E+01    rms(broyden)= 0.11218E+01
  rms(prec ) = 0.12819E+01
  weight for this iteration     100.00

 Free energy of the ion-electron system (eV)
  ---------------------------------------------------
  alpha Z        PSCENC =         0.12374184
  Ewald energy   TEWEN  =       269.60691640
  -Hartree energ DENC   =      -266.51076336
  -exchange      EXHF   =         0.00000000
  -V(xc)+E(xc)   XCENC  =        20.96624788
  PAW double counting   =        17.07221949      -17.14324176
  entropy T*S    EENTRO =        -0.22566500
  eigenvalues    EBANDS =      -137.57389429
  atomic energy  EATOM  =        99.56620307
  Solvation  Ediel_sol  =         0.00000000
  ---------------------------------------------------
  free energy    TOTEN  =       -14.11823572 eV

  energy without entropy =      -13.89257072  energy(sigma->0) =      -14.00540322


--------------------------------------------------------------------------------------------------------




--------------------------------------- Iteration      1(   6)  ---------------------------------------


    POTLOK:  cpu time    0.2830: real time    0.2829
    SETDIJ:  cpu time    0.0105: real time    0.0105
     EDDAV:  cpu time    0.1406: real time    0.1406
       DOS:  cpu time    0.0003: real time    0.0003
    CHARGE:  cpu time    0.0744: real time    0.0745
    MIXING:  cpu time    0.0058: real time    0.0058
    --------------------------------------------
      LOOP:  cpu time    0.5146: real time    0.5145

 eigenvalue-minimisations  :    48
 total energy-change (2. order) : 0.3246183E+01  (-0.1029317E+00)
 number of electron       8.0000179 magnetization      -0.0000000
 augmentation part        0.2286149 magnetization       0.0000085

 Broyden mixing:
  rms(total) = 0.64342E+00    rms(broyden)= 0.64339E+00
  rms(prec ) = 0.74614E+00
  weight for this iteration     100.00

 eigenvalues of (default mixing * dielectric matrix)
  average eigenvalue GAMMA=   2.3058
  2.3058

 Free energy of the ion-electron system (eV)
  ---------------------------------------------------
  alpha Z        PSCENC =         0.12374184
  Ewald energy   TEWEN  =       269.60691640
  -Hartree energ DENC   =      -283.50026412
  -exchange      EXHF   =         0.00000000
  -V(xc)+E(xc)   XCENC  =        22.56963596
  PAW double counting   =        74.05603683      -74.23310312
  entropy T*S    EENTRO =        -0.22567559
  eigenvalues    EBANDS =      -118.83554402
  atomic energy  EATOM  =        99.56620307
  Solvation  Ediel_sol  =         0.00000000
  ---------------------------------------------------
  free energy    TOTEN  =       -10.87205275 eV

  energy without entropy =      -10.64637716  energy(sigma->0) =      -10.75921496


--------------------------------------------------------------------------------------------------------




--------------------------------------- Iteration      1(   7)  ---------------------------------------


    POTLOK:  cpu time    0.2752: real time    0.2751
    SETDIJ:  cpu time    0.0101: real time    0.0101
     EDDAV:  cpu time    0.1387: real time    0.1386
       DOS:  cpu time    0.0003: real time    0.0003
    CHARGE:  cpu time    0.0733: real time    0.0733
    MIXING:  cpu time    0.0060: real time    0.0060
    --------------------------------------------
      LOOP:  cpu time    0.5036: real time    0.5035

 eigenvalue-minimisations  :    48
 total energy-change (2. order) :-0.1468794E+01  (-0.3600113E+01)
 number of electron       8.0000122 magnetization      -0.0000000
 augmentation part        0.1565696 magnetization       0.0000207

 Broyden mixing:
  rms(total) = 0.67499E+00    rms(broyden)= 0.67209E+00
  rms(prec ) = 0.91286E+00
  weight for this iteration     100.00

 eigenvalues of (default mixing * dielectric matrix)
  average eigenvalue GAMMA=   1.1401
  2.0822  0.1981

 Free energy of the ion-electron system (eV)
  ---------------------------------------------------
  alpha Z        PSCENC =         0.12374184
  Ewald energy   TEWEN  =       269.60691640
  -Hartree energ DENC   =      -313.18823442
  -exchange      EXHF   =         0.00000000
  -V(xc)+E(xc)   XCENC  =        25.45207764
  PAW double counting   =       222.34523543     -222.73673820
  entropy T*S    EENTRO =        -0.30617744
  eigenvalues    EBANDS =       -93.20387083
  atomic energy  EATOM  =        99.56620307
  Solvation  Ediel_sol  =         0.00000000
  ---------------------------------------------------
  free energy    TOTEN  =       -12.34084652 eV

  energy without entropy =      -12.03466907  energy(sigma->0) =      -12.18775780


--------------------------------------------------------------------------------------------------------




--------------------------------------- Iteration      1(   8)  ---------------------------------------


    POTLOK:  cpu time    0.2757: real time    0.2757
    SETDIJ:  cpu time    0.0101: real time    0.0101
     EDDAV:  cpu time    0.1394: real time    0.1393
       DOS:  cpu time    0.0003: real time    0.0003
    CHARGE:  cpu time    0.0741: real time    0.0741
    MIXING:  cpu time    0.0064: real time    0.0064
    --------------------------------------------
      LOOP:  cpu time    0.5061: real time    0.5059

 eigenvalue-minimisations  :    48
 total energy-change (2. order) : 0.1363486E+01  (-0.2191690E-01)
 number of electron       8.0000123 magnetization      -0.0000000
 augmentation part        0.1586514 magnetization       0.0000167

 Broyden mixing:
  rms(total) = 0.55887E+00    rms(broyden)= 0.55876E+00
  rms(prec ) = 0.76483E+00
  weight for this iteration     100.00

 eigenvalues of (default mixing * dielectric matrix)
  average eigenvalue GAMMA=   1.3117
  2.1108  0.9122  0.9122

 Free energy of the ion-electron system (eV)
  ---------------------------------------------------
  alpha Z        PSCENC =         0.12374184
  Ewald energy   TEWEN  =       269.60691640
  -Hartree energ DENC   =      -305.49442437
  -exchange      EXHF   =         0.00000000
  -V(xc)+E(xc)   XCENC  =        24.77456755
  PAW double counting   =       195.83728027     -196.18557096
  entropy T*S    EENTRO =        -0.27734243
  eigenvalues    EBANDS =       -98.92873219
  atomic energy  EATOM  =        99.56620307
  Solvation  Ediel_sol  =         0.00000000
  ---------------------------------------------------
  free energy    TOTEN  =       -10.97736080 eV

  energy without entropy =      -10.70001838  energy(sigma->0) =      -10.83868959


--------------------------------------------------------------------------------------------------------




--------------------------------------- Iteration      1(   9)  ---------------------------------------


    POTLOK:  cpu time    0.2733: real time    0.2732
    SETDIJ:  cpu time    0.0101: real time    0.0101
     EDDAV:  cpu time    0.1532: real time    0.1532
       DOS:  cpu time    0.0003: real time    0.0003
    CHARGE:  cpu time    0.0734: real time    0.0733
    MIXING:  cpu time    0.0068: real time    0.0068
    --------------------------------------------
      LOOP:  cpu time    0.5170: real time    0.5168

 eigenvalue-minimisations  :    56
 total energy-change (2. order) : 0.6896173E+00  (-0.1486470E-01)
 number of electron       8.0000124 magnetization       0.0000000
 augmentation part        0.1601006 magnetization       0.0000201

 Broyden mixing:
  rms(total) = 0.49287E+00    rms(broyden)= 0.49287E+00
  rms(prec ) = 0.67186E+00
  weight for this iteration     100.00

 eigenvalues of (default mixing * dielectric matrix)
  average eigenvalue GAMMA=   1.5085
  2.0428  1.1081  1.4416  1.4416

 Free energy of the ion-electron system (eV)
  ---------------------------------------------------
  alpha Z        PSCENC =         0.12374184
  Ewald energy   TEWEN  =       269.60691640
  -Hartree energ DENC   =      -300.96587099
  -exchange      EXHF   =         0.00000000
  -V(xc)+E(xc)   XCENC  =        24.36795299
  PAW double counting   =       186.65175695     -186.98166794
  entropy T*S    EENTRO =        -0.25095504
  eigenvalues    EBANDS =      -102.40582082
  atomic energy  EATOM  =        99.56620307
  Solvation  Ediel_sol  =         0.00000000
  ---------------------------------------------------
  free energy    TOTEN  =       -10.28774353 eV

  energy without entropy =      -10.03678849  energy(sigma->0) =      -10.16226601


--------------------------------------------------------------------------------------------------------




--------------------------------------- Iteration      1(  10)  ---------------------------------------


    POTLOK:  cpu time    0.2679: real time    0.2679
    SETDIJ:  cpu time    0.0100: real time    0.0100
     EDDAV:  cpu time    0.1374: real time    0.1373
       DOS:  cpu time    0.0003: real time    0.0003
    CHARGE:  cpu time    0.0733: real time    0.0996
    MIXING:  cpu time    0.0072: real time    0.0072
    --------------------------------------------
      LOOP:  cpu time    0.4962: real time    0.5223

 eigenvalue-minimisations  :    48
 total energy-change (2. order) :-0.5803226E+00  (-0.3162030E+01)
 number of electron       8.0000179 magnetization       0.0000000
 augmentation part        0.2292833 magnetization      -0.0000524

 Broyden mixing:
  rms(total) = 0.50667E+00    rms(broyden)= 0.50310E+00
  rms(prec ) = 0.62731E+00
  weight for this iteration     100.00

 eigenvalues of (default mixing * dielectric matrix)
  average eigenvalue GAMMA=   1.2794
  2.4629  1.1815  1.1815  0.9718  0.5992

 Free energy of the ion-electron system (eV)
  ---------------------------------------------------
  alpha Z        PSCENC =         0.12374184
  Ewald energy   TEWEN  =       269.60691640
  -Hartree energ DENC   =      -281.79747950
  -exchange      EXHF   =         0.00000000
  -V(xc)+E(xc)   XCENC  =        22.59564543
  PAW double counting   =       157.21732039     -157.47836731
  entropy T*S    EENTRO =        -0.22567583
  eigenvalues    EBANDS =      -120.47637066
  atomic energy  EATOM  =        99.56620307
  Solvation  Ediel_sol  =         0.00000000
  ---------------------------------------------------
  free energy    TOTEN  =       -10.86806617 eV

  energy without entropy =      -10.64239034  energy(sigma->0) =      -10.75522826


--------------------------------------------------------------------------------------------------------




--------------------------------------- Iteration      1(  11)  ---------------------------------------


    POTLOK:  cpu time    0.2759: real time    0.2758
    SETDIJ:  cpu time    0.0104: real time    0.0104
     EDDAV:  cpu time    0.1414: real time    0.1414
       DOS:  cpu time    0.0003: real time    0.0003
    CHARGE:  cpu time    0.0757: real time    0.0757
    MIXING:  cpu time    0.0081: real time    0.0081
    --------------------------------------------
      LOOP:  cpu time    0.5119: real time    0.5118

 eigenvalue-minimisations  :    48
 total energy-change (2. order) : 0.1882602E+00  (-0.1254345E-02)
 number of electron       8.0000179 magnetization       0.0000000
 augmentation part        0.2285931 magnetization      -0.0000121

 Broyden mixing:
  rms(total) = 0.45698E+00    rms(broyden)= 0.45683E+00
  rms(prec ) = 0.57888E+00
  weight for this iteration     100.00

 eigenvalues of (default mixing * dielectric matrix)
  average eigenvalue GAMMA=   1.1072
  2.4682  1.0491  1.0491  0.9472  0.5646  0.5646

 Free energy of the ion-electron system (eV)
  ---------------------------------------------------
  alpha Z        PSCENC =         0.12374184
  Ewald energy   TEWEN  =       269.60691640
  -Hartree energ DENC   =      -282.43600380
  -exchange      EXHF   =         0.00000000
  -V(xc)+E(xc)   XCENC  =        22.75002924
  PAW double counting   =       171.49868879     -171.77531022
  entropy T*S    EENTRO =        -0.22567583
  eigenvalues    EBANDS =      -119.78839551
  atomic energy  EATOM  =        99.56620307
  Solvation  Ediel_sol  =         0.00000000
  ---------------------------------------------------
  free energy    TOTEN  =       -10.67980601 eV

  energy without entropy =      -10.45413018  energy(sigma->0) =      -10.56696809


--------------------------------------------------------------------------------------------------------




--------------------------------------- Iteration      1(  12)  ---------------------------------------


    POTLOK:  cpu time    0.2705: real time    0.2705
    SETDIJ:  cpu time    0.0101: real time    0.0101
     EDDAV:  cpu time    0.1384: real time    0.1384
       DOS:  cpu time    0.0003: real time    0.0003
    CHARGE:  cpu time    0.0736: real time    0.0736
    MIXING:  cpu time    0.0083: real time    0.0083
    --------------------------------------------
      LOOP:  cpu time    0.5011: real time    0.5010

 eigenvalue-minimisations  :    48
 total energy-change (2. order) : 0.5550405E+00  (-0.1157955E-01)
 number of electron       8.0000176 magnetization       0.0000000
 augmentation part        0.2254907 magnetization      -0.0000201

 Broyden mixing:
  rms(total) = 0.34959E+00    rms(broyden)= 0.34959E+00
  rms(prec ) = 0.45631E+00
  weight for this iteration     100.00

 eigenvalues of (default mixing * dielectric matrix)
  average eigenvalue GAMMA=   1.2432
  2.4768  1.0929  1.0929  1.3666  1.0036  1.0036  0.6656

 Free energy of the ion-electron system (eV)
  ---------------------------------------------------
  alpha Z        PSCENC =         0.12374184
  Ewald energy   TEWEN  =       269.60691640
  -Hartree energ DENC   =      -286.28957673
  -exchange      EXHF   =         0.00000000
  -V(xc)+E(xc)   XCENC  =        23.24760703
  PAW double counting   =       183.48002500     -183.77712036
  entropy T*S    EENTRO =        -0.22567619
  eigenvalues    EBANDS =      -115.85688554
  atomic energy  EATOM  =        99.56620307
  Solvation  Ediel_sol  =         0.00000000
  ---------------------------------------------------
  free energy    TOTEN  =       -10.12476547 eV

  energy without entropy =       -9.89908929  energy(sigma->0) =      -10.01192738


--------------------------------------------------------------------------------------------------------




--------------------------------------- Iteration      1(  13)  ---------------------------------------


    POTLOK:  cpu time    0.2702: real time    0.2701
    SETDIJ:  cpu time    0.0103: real time    0.0103
     EDDAV:  cpu time    0.1389: real time    0.1388
       DOS:  cpu time    0.0003: real time    0.0003
    CHARGE:  cpu time    0.0739: real time    0.0739
    MIXING:  cpu time    0.0088: real time    0.0088
    --------------------------------------------
      LOOP:  cpu time    0.5024: real time    0.5022

 eigenvalue-minimisations  :    48
 total energy-change (2. order) : 0.1558561E+00  (-0.1256760E-02)
 number of electron       8.0000176 magnetization       0.0000000
 augmentation part        0.2244741 magnetization       0.0000008

 Broyden mixing:
  rms(total) = 0.31914E+00    rms(broyden)= 0.31914E+00
  rms(prec ) = 0.42051E+00
  weight for this iteration     100.00

 eigenvalues of (default mixing * dielectric matrix)
  average eigenvalue GAMMA=   1.2216
  2.5071  1.1711  1.1711  1.4475  1.0934  1.0934  0.6447  0.6447

 Free energy of the ion-electron system (eV)
  ---------------------------------------------------
  alpha Z        PSCENC =         0.12374184
  Ewald energy   TEWEN  =       269.60691640
  -Hartree energ DENC   =      -287.73698988
  -exchange      EXHF   =         0.00000000
  -V(xc)+E(xc)   XCENC  =        23.41256605
  PAW double counting   =       187.63155587     -187.93418810
  entropy T*S    EENTRO =        -0.22575713
  eigenvalues    EBANDS =      -114.41295746
  atomic energy  EATOM  =        99.56620307
  Solvation  Ediel_sol  =         0.00000000
  ---------------------------------------------------
  free energy    TOTEN  =        -9.96890934 eV

  energy without entropy =       -9.74315221  energy(sigma->0) =       -9.85603078


--------------------------------------------------------------------------------------------------------




--------------------------------------- Iteration      1(  14)  ---------------------------------------


    POTLOK:  cpu time    0.2711: real time    0.2710
    SETDIJ:  cpu time    0.0101: real time    0.0101
     EDDAV:  cpu time    0.1397: real time    0.1397
       DOS:  cpu time    0.0003: real time    0.0003
    CHARGE:  cpu time    0.0740: real time    0.0740
    MIXING:  cpu time    0.0094: real time    0.0094
    --------------------------------------------
      LOOP:  cpu time    0.5046: real time    0.5044

 eigenvalue-minimisations  :    48
 total energy-change (2. order) : 0.1243289E+00  (-0.7554142E-03)
 number of electron       8.0000175 magnetization       0.0000000
 augmentation part        0.2235585 magnetization      -0.0000036

 Broyden mixing:
  rms(total) = 0.29706E+00    rms(broyden)= 0.29705E+00
  rms(prec ) = 0.39251E+00
  weight for this iteration     100.00

 eigenvalues of (default mixing * dielectric matrix)
  average eigenvalue GAMMA=   1.2054
  2.5276  1.2857  1.2857  1.4855  1.2166  1.2166  0.6252  0.6252  0.5806

 Free energy of the ion-electron system (eV)
  ---------------------------------------------------
  alpha Z        PSCENC =         0.12374184
  Ewald energy   TEWEN  =       269.60691640
  -Hartree energ DENC   =      -289.28765392
  -exchange      EXHF   =         0.00000000
  -V(xc)+E(xc)   XCENC  =        23.53704715
  PAW double counting   =       190.49289380     -190.79954996
  entropy T*S    EENTRO =        -0.22843480
  eigenvalues    EBANDS =      -112.85574404
  atomic energy  EATOM  =        99.56620307
  Solvation  Ediel_sol  =         0.00000000
  ---------------------------------------------------
  free energy    TOTEN  =        -9.84458045 eV

  energy without entropy =       -9.61614565  energy(sigma->0) =       -9.73036305


--------------------------------------------------------------------------------------------------------




--------------------------------------- Iteration      1(  15)  ---------------------------------------


    POTLOK:  cpu time    0.2727: real time    0.2726
    SETDIJ:  cpu time    0.0102: real time    0.0102
     EDDAV:  cpu time    0.1390: real time    0.1390
       DOS:  cpu time    0.0003: real time    0.0003
    CHARGE:  cpu time    0.0748: real time    0.0748
    MIXING:  cpu time    0.0100: real time    0.0100
    --------------------------------------------
      LOOP:  cpu time    0.5069: real time    0.5068

 eigenvalue-minimisations  :    48
 total energy-change (2. order) : 0.1186792E+00  (-0.2304124E+00)
 number of electron       8.0000137 magnetization      -0.0000000
 augmentation part        0.1758806 magnetization      -0.0000497

 Broyden mixing:
  rms(total) = 0.28535E+00    rms(broyden)= 0.28224E+00
  rms(prec ) = 0.37976E+00
  weight for this iteration     100.00

 eigenvalues of (default mixing * dielectric matrix)
  average eigenvalue GAMMA=   1.2356
  2.4827  1.3732  1.3732  1.4500  1.4500  1.1958  1.1276  0.6365  0.6365  0.6303

 Free energy of the ion-electron system (eV)
  ---------------------------------------------------
  alpha Z        PSCENC =         0.12374184
  Ewald energy   TEWEN  =       269.60691640
  -Hartree energ DENC   =      -295.03348967
  -exchange      EXHF   =         0.00000000
  -V(xc)+E(xc)   XCENC  =        24.02544266
  PAW double counting   =       200.09431503     -200.41622262
  entropy T*S    EENTRO =        -0.33416833
  eigenvalues    EBANDS =      -107.35863964
  atomic energy  EATOM  =        99.56620307
  Solvation  Ediel_sol  =         0.00000000
  ---------------------------------------------------
  free energy    TOTEN  =        -9.72590127 eV

  energy without entropy =       -9.39173294  energy(sigma->0) =       -9.55881710


--------------------------------------------------------------------------------------------------------




--------------------------------------- Iteration      1(  16)  ---------------------------------------


    POTLOK:  cpu time    0.2719: real time    0.2718
    SETDIJ:  cpu time    0.0101: real time    0.0101
     EDDAV:  cpu time    0.1377: real time    0.1376
       DOS:  cpu time    0.0003: real time    0.0003
    CHARGE:  cpu time    0.0742: real time    0.0741
    MIXING:  cpu time    0.0105: real time    0.0105
    --------------------------------------------
      LOOP:  cpu time    0.5046: real time    0.5045

 eigenvalue-minimisations  :    48
 total energy-change (2. order) :-0.8891104E-01  (-0.3886150E+00)
 number of electron       8.0000174 magnetization      -0.0000000
 augmentation part        0.2229308 magnetization      -0.0000087

 Broyden mixing:
  rms(total) = 0.29047E+00    rms(broyden)= 0.28863E+00
  rms(prec ) = 0.38002E+00
  weight for this iteration     100.00

 eigenvalues of (default mixing * dielectric matrix)
  average eigenvalue GAMMA=   1.2868
  2.4695  1.3789  1.3789  1.5969  1.5969  1.4686  1.4686  0.7356  0.7356  0.6843
  0.6412

 Free energy of the ion-electron system (eV)
  ---------------------------------------------------
  alpha Z        PSCENC =         0.12374184
  Ewald energy   TEWEN  =       269.60691640
  -Hartree energ DENC   =      -289.85884481
  -exchange      EXHF   =         0.00000000
  -V(xc)+E(xc)   XCENC  =        23.56447112
  PAW double counting   =       190.54594301     -190.85315255
  entropy T*S    EENTRO =        -0.23342564
  eigenvalues    EBANDS =      -112.27666475
  atomic energy  EATOM  =        99.56620307
  Solvation  Ediel_sol  =         0.00000000
  ---------------------------------------------------
  free energy    TOTEN  =        -9.81481231 eV

  energy without entropy =       -9.58138666  energy(sigma->0) =       -9.69809949


--------------------------------------------------------------------------------------------------------




--------------------------------------- Iteration      1(  17)  ---------------------------------------


    POTLOK:  cpu time    0.2718: real time    0.2717
    SETDIJ:  cpu time    0.0101: real time    0.0101
     EDDAV:  cpu time    0.1378: real time    0.1377
       DOS:  cpu time    0.0003: real time    0.0003
    CHARGE:  cpu time    0.0734: real time    0.0734
    MIXING:  cpu time    0.0110: real time    0.0110
    --------------------------------------------
      LOOP:  cpu time    0.5045: real time    0.5043

 eigenvalue-minimisations  :    48
 total energy-change (2. order) : 0.1539856E+00  (-0.2486533E-02)
 number of electron       8.0000162 magnetization      -0.0000000
 augmentation part        0.2074487 magnetization      -0.0000483

 Broyden mixing:
  rms(total) = 0.91987E-01    rms(broyden)= 0.91731E-01
  rms(prec ) = 0.12151E+00
  weight for this iteration     100.00

 eigenvalues of (default mixing * dielectric matrix)
  average eigenvalue GAMMA=   1.2227
  2.4690  1.3713  1.3713  1.6589  1.6589  1.5913  1.5913  0.7550  0.7550  0.6398
  0.6398  0.1703

 Free energy of the ion-electron system (eV)
  ---------------------------------------------------
  alpha Z        PSCENC =         0.12374184
  Ewald energy   TEWEN  =       269.60691640
  -Hartree energ DENC   =      -292.49774849
  -exchange      EXHF   =         0.00000000
  -V(xc)+E(xc)   XCENC  =        23.80169097
  PAW double counting   =       195.66338878     -195.97863341
  entropy T*S    EENTRO =        -0.32994225
  eigenvalues    EBANDS =      -109.61644359
  atomic energy  EATOM  =        99.56620307
  Solvation  Ediel_sol  =         0.00000000
  ---------------------------------------------------
  free energy    TOTEN  =        -9.66082666 eV

  energy without entropy =       -9.33088441  energy(sigma->0) =       -9.49585553


--------------------------------------------------------------------------------------------------------




--------------------------------------- Iteration      1(  18)  ---------------------------------------


    POTLOK:  cpu time    0.2722: real time    0.2721
    SETDIJ:  cpu time    0.0101: real time    0.0101
     EDDAV:  cpu time    0.1387: real time    0.1386
       DOS:  cpu time    0.0003: real time    0.0003
    CHARGE:  cpu time    0.0738: real time    0.0738
    MIXING:  cpu time    0.0117: real time    0.0117
    --------------------------------------------
      LOOP:  cpu time    0.5068: real time    0.5066

 eigenvalue-minimisations  :    48
 total energy-change (2. order) :-0.1771849E-01  (-0.5574630E-04)
 number of electron       8.0000164 magnetization      -0.0000000
 augmentation part        0.2103331 magnetization      -0.0001036

 Broyden mixing:
  rms(total) = 0.12676E+00    rms(broyden)= 0.12675E+00
  rms(prec ) = 0.16736E+00
  weight for this iteration     100.00

 eigenvalues of (default mixing * dielectric matrix)
  average eigenvalue GAMMA=   1.1495
  2.4687  1.3698  1.3698  1.6680  1.6680  1.5844  1.5844  0.7814  0.7361  0.6268
  0.6268  0.3089  0.1500

 Free energy of the ion-electron system (eV)
  ---------------------------------------------------
  alpha Z        PSCENC =         0.12374184
  Ewald energy   TEWEN  =       269.60691640
  -Hartree energ DENC   =      -292.27384765
  -exchange      EXHF   =         0.00000000
  -V(xc)+E(xc)   XCENC  =        23.77231484
  PAW double counting   =       194.84463056     -195.15871707
  entropy T*S    EENTRO =        -0.31793565
  eigenvalues    EBANDS =      -109.84185150
  atomic energy  EATOM  =        99.56620307
  Solvation  Ediel_sol  =         0.00000000
  ---------------------------------------------------
  free energy    TOTEN  =        -9.67854515 eV

  energy without entropy =       -9.36060950  energy(sigma->0) =       -9.51957733


--------------------------------------------------------------------------------------------------------




--------------------------------------- Iteration      1(  19)  ---------------------------------------


    POTLOK:  cpu time    0.2718: real time    0.2717
    SETDIJ:  cpu time    0.0102: real time    0.0102
     EDDAV:  cpu time    0.1449: real time    0.1450
       DOS:  cpu time    0.0003: real time    0.0003
    CHARGE:  cpu time    0.0777: real time    0.0776
    MIXING:  cpu time    0.0133: real time    0.0133
    --------------------------------------------
      LOOP:  cpu time    0.5181: real time    0.5181

 eigenvalue-minimisations  :    48
 total energy-change (2. order) : 0.8790285E-02  (-0.2381996E-04)
 number of electron       8.0000162 magnetization      -0.0000000
 augmentation part        0.2075738 magnetization      -0.0001865

 Broyden mixing:
  rms(total) = 0.93765E-01    rms(broyden)= 0.93740E-01
  rms(prec ) = 0.12355E+00
  weight for this iteration     100.00

 eigenvalues of (default mixing * dielectric matrix)
  average eigenvalue GAMMA=   1.2229
  2.4558  2.0053  2.0053  1.3574  1.3574  0.8911  1.1716  1.1716  1.0875  0.7656
  0.7656  0.7312  0.7312  0.6237

 Free energy of the ion-electron system (eV)
  ---------------------------------------------------
  alpha Z        PSCENC =         0.12374184
  Ewald energy   TEWEN  =       269.60691640
  -Hartree energ DENC   =      -292.53232064
  -exchange      EXHF   =         0.00000000
  -V(xc)+E(xc)   XCENC  =        23.79549286
  PAW double counting   =       195.24566245     -195.56046193
  entropy T*S    EENTRO =        -0.32961265
  eigenvalues    EBANDS =      -109.58537628
  atomic energy  EATOM  =        99.56620307
  Solvation  Ediel_sol  =         0.00000000
  ---------------------------------------------------
  free energy    TOTEN  =        -9.66975486 eV

  energy without entropy =       -9.34014222  energy(sigma->0) =       -9.50494854


--------------------------------------------------------------------------------------------------------




--------------------------------------- Iteration      1(  20)  ---------------------------------------


    POTLOK:  cpu time    0.2737: real time    0.2736
    SETDIJ:  cpu time    0.0102: real time    0.0102
     EDDAV:  cpu time    0.1387: real time    0.1386
       DOS:  cpu time    0.0003: real time    0.0003
    CHARGE:  cpu time    0.0739: real time    0.0921
    MIXING:  cpu time    0.0133: real time    0.0133
    --------------------------------------------
      LOOP:  cpu time    0.5102: real time    0.5282

 eigenvalue-minimisations  :    48
 total energy-change (2. order) :-0.6390297E-02  (-0.1170887E-04)
 number of electron       8.0000164 magnetization      -0.0000000
 augmentation part        0.2091963 magnetization      -0.0002873

 Broyden mixing:
  rms(total) = 0.11308E+00    rms(broyden)= 0.11307E+00
  rms(prec ) = 0.14916E+00
  weight for this iteration     100.00

 eigenvalues of (default mixing * dielectric matrix)
  average eigenvalue GAMMA=   1.3975
  4.0477  2.5031  2.0428  2.0428  1.3460  1.3460  0.9933  1.2224  0.8551  0.8551
  0.8439  0.8439  0.7504  0.6495  0.6204

 Free energy of the ion-electron system (eV)
  ---------------------------------------------------
  alpha Z        PSCENC =         0.12374184
  Ewald energy   TEWEN  =       269.60691640
  -Hartree energ DENC   =      -292.37948292
  -exchange      EXHF   =         0.00000000
  -V(xc)+E(xc)   XCENC  =        23.78170343
  PAW double counting   =       194.99562753     -195.30998794
  entropy T*S    EENTRO =        -0.32302814
  eigenvalues    EBANDS =      -109.73783842
  atomic energy  EATOM  =        99.56620307
  Solvation  Ediel_sol  =         0.00000000
  ---------------------------------------------------
  free energy    TOTEN  =        -9.67614516 eV

  energy without entropy =       -9.35311702  energy(sigma->0) =       -9.51463109


--------------------------------------------------------------------------------------------------------




--------------------------------------- Iteration      1(  21)  ---------------------------------------


    POTLOK:  cpu time    0.2710: real time    0.2709
    SETDIJ:  cpu time    0.0101: real time    0.0101
     EDDAV:  cpu time    0.1381: real time    0.1380
       DOS:  cpu time    0.0003: real time    0.0003
    CHARGE:  cpu time    0.0737: real time    0.0736
    MIXING:  cpu time    0.0139: real time    0.0139
    --------------------------------------------
      LOOP:  cpu time    0.5069: real time    0.5068

 eigenvalue-minimisations  :    48
 total energy-change (2. order) : 0.2276175E-03  (-0.2140221E-05)
 number of electron       8.0000164 magnetization       0.0000000
 augmentation part        0.2094852 magnetization      -0.0001105

 Broyden mixing:
  rms(total) = 0.11673E+00    rms(broyden)= 0.11673E+00
  rms(prec ) = 0.15395E+00
  weight for this iteration     100.00

 eigenvalues of (default mixing * dielectric matrix)
  average eigenvalue GAMMA=   1.3860
  4.0334  2.4772  2.2724  2.2724  1.3431  1.3431  0.9891  1.0635  1.0635  0.8210
  0.8210  0.8429  0.8429  0.7756  0.6334  0.5812

 Free energy of the ion-electron system (eV)
  ---------------------------------------------------
  alpha Z        PSCENC =         0.12374184
  Ewald energy   TEWEN  =       269.60691640
  -Hartree energ DENC   =      -292.35864308
  -exchange      EXHF   =         0.00000000
  -V(xc)+E(xc)   XCENC  =        23.77894226
  PAW double counting   =       194.88355603     -195.19774265
  entropy T*S    EENTRO =        -0.32175937
  eigenvalues    EBANDS =      -109.75713205
  atomic energy  EATOM  =        99.56620307
  Solvation  Ediel_sol  =         0.00000000
  ---------------------------------------------------
  free energy    TOTEN  =        -9.67591754 eV

  energy without entropy =       -9.35415817  energy(sigma->0) =       -9.51503786


--------------------------------------------------------------------------------------------------------




--------------------------------------- Iteration      1(  22)  ---------------------------------------


    POTLOK:  cpu time    0.2703: real time    0.2702
    SETDIJ:  cpu time    0.0101: real time    0.0101
     EDDAV:  cpu time    0.1385: real time    0.1385
       DOS:  cpu time    0.0003: real time    0.0003
    CHARGE:  cpu time    0.0740: real time    0.0740
    MIXING:  cpu time    0.0147: real time    0.0147
    --------------------------------------------
      LOOP:  cpu time    0.5079: real time    0.5077

 eigenvalue-minimisations  :    48
 total energy-change (2. order) : 0.1233977E-01  (-0.1603259E-03)
 number of electron       8.0000157 magnetization      -0.0000000
 augmentation part        0.2015524 magnetization       0.0000237

 Broyden mixing:
  rms(total) = 0.23442E-01    rms(broyden)= 0.22411E-01
  rms(prec ) = 0.28601E-01
  weight for this iteration     100.00

 eigenvalues of (default mixing * dielectric matrix)
  average eigenvalue GAMMA=   1.3396
  3.5661  2.5505  2.1205  2.1205  1.3436  1.3436  1.7788  0.9645  1.0634  1.0634
  0.8451  0.8451  0.7360  0.7360  0.6338  0.6275  0.4343

 Free energy of the ion-electron system (eV)
  ---------------------------------------------------
  alpha Z        PSCENC =         0.12374184
  Ewald energy   TEWEN  =       269.60691640
  -Hartree energ DENC   =      -293.04846204
  -exchange      EXHF   =         0.00000000
  -V(xc)+E(xc)   XCENC  =        23.83957560
  PAW double counting   =       195.99174683     -196.30775788
  entropy T*S    EENTRO =        -0.34833227
  eigenvalues    EBANDS =      -109.08720933
  atomic energy  EATOM  =        99.56620307
  Solvation  Ediel_sol  =         0.00000000
  ---------------------------------------------------
  free energy    TOTEN  =        -9.66357778 eV

  energy without entropy =       -9.31524551  energy(sigma->0) =       -9.48941164


--------------------------------------------------------------------------------------------------------




--------------------------------------- Iteration      1(  23)  ---------------------------------------


    POTLOK:  cpu time    0.2739: real time    0.2738
    SETDIJ:  cpu time    0.0103: real time    0.0103
     EDDAV:  cpu time    0.1393: real time    0.1392
       DOS:  cpu time    0.0003: real time    0.0003
    CHARGE:  cpu time    0.0741: real time    0.0741
    MIXING:  cpu time    0.0154: real time    0.0154
    --------------------------------------------
      LOOP:  cpu time    0.5132: real time    0.5131

 eigenvalue-minimisations  :    48
 total energy-change (2. order) :-0.4569023E-02  (-0.3772824E-04)
 number of electron       8.0000159 magnetization       0.0000000
 augmentation part        0.2036794 magnetization      -0.0000415

 Broyden mixing:
  rms(total) = 0.47439E-01    rms(broyden)= 0.47437E-01
  rms(prec ) = 0.61760E-01
  weight for this iteration     100.00

 eigenvalues of (default mixing * dielectric matrix)
  average eigenvalue GAMMA=   1.2715
  3.3988  2.5929  2.0788  2.0788  1.3437  1.3437  1.9592  0.9676  1.0717  1.0717
  0.8397  0.8397  0.7248  0.7248  0.6261  0.6261  0.2569  0.3418

 Free energy of the ion-electron system (eV)
  ---------------------------------------------------
  alpha Z        PSCENC =         0.12374184
  Ewald energy   TEWEN  =       269.60691640
  -Hartree energ DENC   =      -292.84515959
  -exchange      EXHF   =         0.00000000
  -V(xc)+E(xc)   XCENC  =        23.82281089
  PAW double counting   =       195.67693106     -195.99252609
  entropy T*S    EENTRO =        -0.34278248
  eigenvalues    EBANDS =      -109.28428192
  atomic energy  EATOM  =        99.56620307
  Solvation  Ediel_sol  =         0.00000000
  ---------------------------------------------------
  free energy    TOTEN  =        -9.66814680 eV

  energy without entropy =       -9.32536432  energy(sigma->0) =       -9.49675556


--------------------------------------------------------------------------------------------------------




--------------------------------------- Iteration      1(  24)  ---------------------------------------


    POTLOK:  cpu time    0.2733: real time    0.2732
    SETDIJ:  cpu time    0.0102: real time    0.0102
     EDDAV:  cpu time    0.1397: real time    0.1397
       DOS:  cpu time    0.0003: real time    0.0003
    CHARGE:  cpu time    0.0738: real time    0.0738
    MIXING:  cpu time    0.0164: real time    0.0164
    --------------------------------------------
      LOOP:  cpu time    0.5136: real time    0.5135

 eigenvalue-minimisations  :    48
 total energy-change (2. order) : 0.1570090E-02  (-0.1659320E-04)
 number of electron       8.0000157 magnetization      -0.0000000
 augmentation part        0.2011201 magnetization       0.0000184

 Broyden mixing:
  rms(total) = 0.17116E-01    rms(broyden)= 0.16980E-01
  rms(prec ) = 0.21465E-01
  weight for this iteration     100.00

 eigenvalues of (default mixing * dielectric matrix)
  average eigenvalue GAMMA=   1.4951
  6.2087  2.3115  2.3115  2.5451  2.2826  1.3434  1.3434  0.9738  1.2610  1.2610
  0.8968  0.8968  0.7751  0.7751  0.7389  0.7389  0.6357  0.5818  0.5249

 Free energy of the ion-electron system (eV)
  ---------------------------------------------------
  alpha Z        PSCENC =         0.12374184
  Ewald energy   TEWEN  =       269.60691640
  -Hartree energ DENC   =      -293.04310902
  -exchange      EXHF   =         0.00000000
  -V(xc)+E(xc)   XCENC  =        23.84199423
  PAW double counting   =       196.06423717     -196.38046030
  entropy T*S    EENTRO =        -0.34933816
  eigenvalues    EBANDS =      -109.09676195
  atomic energy  EATOM  =        99.56620307
  Solvation  Ediel_sol  =         0.00000000
  ---------------------------------------------------
  free energy    TOTEN  =        -9.66657671 eV

  energy without entropy =       -9.31723855  energy(sigma->0) =       -9.49190763


--------------------------------------------------------------------------------------------------------




--------------------------------------- Iteration      1(  25)  ---------------------------------------


    POTLOK:  cpu time    0.2730: real time    0.2729
    SETDIJ:  cpu time    0.0102: real time    0.0102
     EDDAV:  cpu time    0.1545: real time    0.1545
       DOS:  cpu time    0.0003: real time    0.0003
    CHARGE:  cpu time    0.0737: real time    0.0737
    MIXING:  cpu time    0.0169: real time    0.0169
    --------------------------------------------
      LOOP:  cpu time    0.5286: real time    0.5284

 eigenvalue-minimisations  :    56
 total energy-change (2. order) :-0.7542031E-03  (-0.4029807E-05)
 number of electron       8.0000158 magnetization       0.0000000
 augmentation part        0.2018086 magnetization      -0.0000199

 Broyden mixing:
  rms(total) = 0.24770E-01    rms(broyden)= 0.24769E-01
  rms(prec ) = 0.31798E-01
  weight for this iteration     100.00

 eigenvalues of (default mixing * dielectric matrix)
  average eigenvalue GAMMA=   1.4789
  6.7467  2.6440  2.2572  2.2572  2.2811  1.3436  1.3436  0.9724  1.2289  1.2289
  0.9327  0.9327  0.7878  0.7878  0.6614  0.6614  0.6819  0.6819  0.6234  0.5236

 Free energy of the ion-electron system (eV)
  ---------------------------------------------------
  alpha Z        PSCENC =         0.12374184
  Ewald energy   TEWEN  =       269.60691640
  -Hartree energ DENC   =      -292.96431771
  -exchange      EXHF   =         0.00000000
  -V(xc)+E(xc)   XCENC  =        23.83831139
  PAW double counting   =       196.01929475     -196.33548130
  entropy T*S    EENTRO =        -0.34771519
  eigenvalues    EBANDS =      -109.17428415
  atomic energy  EATOM  =        99.56620307
  Solvation  Ediel_sol  =         0.00000000
  ---------------------------------------------------
  free energy    TOTEN  =        -9.66733091 eV

  energy without entropy =       -9.31961572  energy(sigma->0) =       -9.49347332


--------------------------------------------------------------------------------------------------------




--------------------------------------- Iteration      1(  26)  ---------------------------------------


    POTLOK:  cpu time    0.2734: real time    0.2732
    SETDIJ:  cpu time    0.0102: real time    0.0102
     EDDAV:  cpu time    0.1380: real time    0.1380
       DOS:  cpu time    0.0003: real time    0.0003
    CHARGE:  cpu time    0.0736: real time    0.0736
    MIXING:  cpu time    0.0180: real time    0.0180
    --------------------------------------------
      LOOP:  cpu time    0.5135: real time    0.5133

 eigenvalue-minimisations  :    48
 total energy-change (2. order) : 0.2859588E-03  (-0.5213319E-05)
 number of electron       8.0000157 magnetization       0.0000000
 augmentation part        0.2005595 magnetization       0.0000010

 Broyden mixing:
  rms(total) = 0.97744E-02    rms(broyden)= 0.97165E-02
  rms(prec ) = 0.12121E-01
  weight for this iteration     100.00

 eigenvalues of (default mixing * dielectric matrix)
  average eigenvalue GAMMA=   1.5201
  7.8213  2.6090  2.3292  2.3292  2.2557  1.3436  1.3436  0.9720  1.3108  1.3108
  0.9572  0.9572  0.8478  0.8478  0.8012  0.8012  0.6745  0.6745  0.6100  0.6100
  0.5160

 Free energy of the ion-electron system (eV)
  ---------------------------------------------------
  alpha Z        PSCENC =         0.12374184
  Ewald energy   TEWEN  =       269.60691640
  -Hartree energ DENC   =      -293.04034343
  -exchange      EXHF   =         0.00000000
  -V(xc)+E(xc)   XCENC  =        23.84863067
  PAW double counting   =       196.24491377     -196.56147694
  entropy T*S    EENTRO =        -0.35054179
  eigenvalues    EBANDS =      -109.10508855
  atomic energy  EATOM  =        99.56620307
  Solvation  Ediel_sol  =         0.00000000
  ---------------------------------------------------
  free energy    TOTEN  =        -9.66704495 eV

  energy without entropy =       -9.31650316  energy(sigma->0) =       -9.49177406


--------------------------------------------------------------------------------------------------------




--------------------------------------- Iteration      1(  27)  ---------------------------------------


    POTLOK:  cpu time    0.2736: real time    0.2735
    SETDIJ:  cpu time    0.0102: real time    0.0102
     EDDAV:  cpu time    0.1537: real time    0.1536
       DOS:  cpu time    0.0003: real time    0.0003
    CHARGE:  cpu time    0.0731: real time    0.0731
    MIXING:  cpu time    0.0188: real time    0.0188
    --------------------------------------------
      LOOP:  cpu time    0.5296: real time    0.5294

 eigenvalue-minimisations  :    56
 total energy-change (2. order) :-0.1768094E-03  (-0.1631291E-05)
 number of electron       8.0000157 magnetization      -0.0000000
 augmentation part        0.2006585 magnetization      -0.0000029

 Broyden mixing:
  rms(total) = 0.10441E-01    rms(broyden)= 0.10441E-01
  rms(prec ) = 0.13110E-01
  weight for this iteration     100.00

 eigenvalues of (default mixing * dielectric matrix)
  average eigenvalue GAMMA=   1.5932
  9.2858  2.4824  2.4824  2.6084  1.3436  1.3436  2.2093  0.9718  1.5937  1.5937
  0.9900  0.9900  0.8781  0.8781  0.8207  0.8207  0.6346  0.6346  0.6959  0.6705
  0.6134  0.5079

 Free energy of the ion-electron system (eV)
  ---------------------------------------------------
  alpha Z        PSCENC =         0.12374184
  Ewald energy   TEWEN  =       269.60691640
  -Hartree energ DENC   =      -293.00324568
  -exchange      EXHF   =         0.00000000
  -V(xc)+E(xc)   XCENC  =        23.84979997
  PAW double counting   =       196.29829701     -196.61496983
  entropy T*S    EENTRO =        -0.35031113
  eigenvalues    EBANDS =      -109.14365342
  atomic energy  EATOM  =        99.56620307
  Solvation  Ediel_sol  =         0.00000000
  ---------------------------------------------------
  free energy    TOTEN  =        -9.66722176 eV

  energy without entropy =       -9.31691063  energy(sigma->0) =       -9.49206620


--------------------------------------------------------------------------------------------------------




--------------------------------------- Iteration      1(  28)  ---------------------------------------


    POTLOK:  cpu time    0.2742: real time    0.2741
    SETDIJ:  cpu time    0.0103: real time    0.0102
     EDDAV:  cpu time    0.1534: real time    0.1534
       DOS:  cpu time    0.0003: real time    0.0003
    CHARGE:  cpu time    0.0734: real time    0.0734
    MIXING:  cpu time    0.0198: real time    0.0198
    --------------------------------------------
      LOOP:  cpu time    0.5313: real time    0.5312

 eigenvalue-minimisations  :    56
 total energy-change (2. order) :-0.1003859E-03  (-0.7407019E-05)
 number of electron       8.0000156 magnetization       0.0000000
 augmentation part        0.1996472 magnetization      -0.0000154

 Broyden mixing:
  rms(total) = 0.27821E-02    rms(broyden)= 0.26278E-02
  rms(prec ) = 0.44647E-02
  weight for this iteration     100.00

 eigenvalues of (default mixing * dielectric matrix)
  average eigenvalue GAMMA=   1.6720
 11.0085  2.5868  2.5868  2.5665  1.3436  1.3436  2.1424  1.8792  1.8792  0.9718
  0.9897  0.9897  0.9518  0.9518  0.7784  0.7784  0.7836  0.7836  0.6849  0.6849
  0.6280  0.6280  0.5137

 Free energy of the ion-electron system (eV)
  ---------------------------------------------------
  alpha Z        PSCENC =         0.12374184
  Ewald energy   TEWEN  =       269.60691640
  -Hartree energ DENC   =      -293.01632801
  -exchange      EXHF   =         0.00000000
  -V(xc)+E(xc)   XCENC  =        23.86090662
  PAW double counting   =       196.57700649     -196.89418607
  entropy T*S    EENTRO =        -0.35233971
  eigenvalues    EBANDS =      -109.13924278
  atomic energy  EATOM  =        99.56620307
  Solvation  Ediel_sol  =         0.00000000
  ---------------------------------------------------
  free energy    TOTEN  =        -9.66732215 eV

  energy without entropy =       -9.31498244  energy(sigma->0) =       -9.49115229


--------------------------------------------------------------------------------------------------------




--------------------------------------- Iteration      1(  29)  ---------------------------------------


    POTLOK:  cpu time    0.2768: real time    0.2767
    SETDIJ:  cpu time    0.0102: real time    0.0102
     EDDAV:  cpu time    0.1382: real time    0.1382
       DOS:  cpu time    0.0003: real time    0.0003
    CHARGE:  cpu time    0.0736: real time    0.0735
    MIXING:  cpu time    0.0207: real time    0.0207
    --------------------------------------------
      LOOP:  cpu time    0.5199: real time    0.5197

 eigenvalue-minimisations  :    48
 total energy-change (2. order) :-0.3510473E-04  (-0.8956292E-06)
 number of electron       8.0000156 magnetization       0.0000000
 augmentation part        0.1999836 magnetization      -0.0000000

 Broyden mixing:
  rms(total) = 0.13557E-02    rms(broyden)= 0.13514E-02
  rms(prec ) = 0.18213E-02
  weight for this iteration     100.00

 eigenvalues of (default mixing * dielectric matrix)
  average eigenvalue GAMMA=   1.6406
 11.3306  2.6128  2.6128  1.3436  1.3436  2.5549  1.9859  1.9859  2.1132  0.9718
  0.9863  0.9863  0.9633  0.9633  0.7819  0.7819  0.7937  0.7937  0.6719  0.6719
  0.6214  0.6214  0.5178  0.3648

 Free energy of the ion-electron system (eV)
  ---------------------------------------------------
  alpha Z        PSCENC =         0.12374184
  Ewald energy   TEWEN  =       269.60691640
  -Hartree energ DENC   =      -292.96293402
  -exchange      EXHF   =         0.00000000
  -V(xc)+E(xc)   XCENC  =        23.85996631
  PAW double counting   =       196.57952129     -196.89671018
  entropy T*S    EENTRO =        -0.35166674
  eigenvalues    EBANDS =      -109.19239523
  atomic energy  EATOM  =        99.56620307
  Solvation  Ediel_sol  =         0.00000000
  ---------------------------------------------------
  free energy    TOTEN  =        -9.66735725 eV

  energy without entropy =       -9.31569052  energy(sigma->0) =       -9.49152388


--------------------------------------------------------------------------------------------------------




--------------------------------------- Iteration      1(  30)  ---------------------------------------


    POTLOK:  cpu time    0.2770: real time    0.2769
    SETDIJ:  cpu time    0.0102: real time    0.0102
     EDDAV:  cpu time    0.1542: real time    0.1667
       DOS:  cpu time    0.0003: real time    0.0003
    CHARGE:  cpu time    0.0736: real time    0.0736
    MIXING:  cpu time    0.0220: real time    0.0220
    --------------------------------------------
      LOOP:  cpu time    0.5373: real time    0.5496

 eigenvalue-minimisations  :    56
 total energy-change (2. order) :-0.8669967E-05  (-0.2253279E-06)
 number of electron       8.0000156 magnetization       0.0000000
 augmentation part        0.1999574 magnetization      -0.0000044

 Broyden mixing:
  rms(total) = 0.78379E-03    rms(broyden)= 0.78379E-03
  rms(prec ) = 0.11729E-02
  weight for this iteration     100.00

 eigenvalues of (default mixing * dielectric matrix)
  average eigenvalue GAMMA=   1.6911
 12.0928  2.6232  2.6232  2.5792  2.2724  2.2724  2.1660  1.3436  1.3436  0.9718
  1.1086  1.1086  0.9714  0.9714  0.8540  0.8540  0.8155  0.8155  0.6673  0.6673
  0.6856  0.6856  0.6366  0.6339  0.5131

 Free energy of the ion-electron system (eV)
  ---------------------------------------------------
  alpha Z        PSCENC =         0.12374184
  Ewald energy   TEWEN  =       269.60691640
  -Hartree energ DENC   =      -292.94657161
  -exchange      EXHF   =         0.00000000
  -V(xc)+E(xc)   XCENC  =        23.86133894
  PAW double counting   =       196.62528281     -196.94255979
  entropy T*S    EENTRO =        -0.35170867
  eigenvalues    EBANDS =      -109.21000891
  atomic energy  EATOM  =        99.56620307
  Solvation  Ediel_sol  =         0.00000000
  ---------------------------------------------------
  free energy    TOTEN  =        -9.66736592 eV

  energy without entropy =       -9.31565725  energy(sigma->0) =       -9.49151159


--------------------------------------------------------------------------------------------------------




--------------------------------------- Iteration      1(  31)  ---------------------------------------


    POTLOK:  cpu time    0.2763: real time    0.2763
    SETDIJ:  cpu time    0.0103: real time    0.0102
     EDDAV:  cpu time    0.1372: real time    0.1372
       DOS:  cpu time    0.0003: real time    0.0003
    CHARGE:  cpu time    0.0732: real time    0.0732
    MIXING:  cpu time    0.0225: real time    0.0225
    --------------------------------------------
      LOOP:  cpu time    0.5199: real time    0.5198

 eigenvalue-minimisations  :    48
 total energy-change (2. order) :-0.3249445E-04  (-0.1900535E-05)
 number of electron       8.0000156 magnetization       0.0000000
 augmentation part        0.1995427 magnetization       0.0000019

 Broyden mixing:
  rms(total) = 0.47859E-02    rms(broyden)= 0.47720E-02
  rms(prec ) = 0.64869E-02
  weight for this iteration     100.00

 eigenvalues of (default mixing * dielectric matrix)
  average eigenvalue GAMMA=   1.6985
 12.5022  2.8739  2.8739  2.5595  2.2499  2.2499  1.3436  1.3436  2.1420  0.9718
  1.2711  1.2711  0.9696  0.9696  0.8450  0.8450  0.8312  0.8312  0.7202  0.7202
  0.7018  0.7018  0.5121  0.6229  0.6229  0.6154

 Free energy of the ion-electron system (eV)
  ---------------------------------------------------
  alpha Z        PSCENC =         0.12374184
  Ewald energy   TEWEN  =       269.60691640
  -Hartree energ DENC   =      -292.94142066
  -exchange      EXHF   =         0.00000000
  -V(xc)+E(xc)   XCENC  =        23.86664254
  PAW double counting   =       196.75615555     -197.07366774
  entropy T*S    EENTRO =        -0.35249916
  eigenvalues    EBANDS =      -109.21947027
  atomic energy  EATOM  =        99.56620307
  Solvation  Ediel_sol  =         0.00000000
  ---------------------------------------------------
  free energy    TOTEN  =        -9.66739842 eV

  energy without entropy =       -9.31489926  energy(sigma->0) =       -9.49114884


--------------------------------------------------------------------------------------------------------




--------------------------------------- Iteration      1(  32)  ---------------------------------------


    POTLOK:  cpu time    0.2798: real time    0.2797
    SETDIJ:  cpu time    0.0109: real time    0.0109
     EDDAV:  cpu time    0.1405: real time    0.1405
       DOS:  cpu time    0.0003: real time    0.0003
    CHARGE:  cpu time    0.0758: real time    0.0758
    MIXING:  cpu time    0.0259: real time    0.0259
    --------------------------------------------
      LOOP:  cpu time    0.5332: real time    0.5331

 eigenvalue-minimisations  :    48
 total energy-change (2. order) : 0.1971480E-04  (-0.1597891E-06)
 number of electron       8.0000156 magnetization       0.0000000
[...]
  entropy T*S    EENTRO =        -0.35199354
  eigenvalues    EBANDS =      -109.24831001
  atomic energy  EATOM  =        99.56620307
  Solvation  Ediel_sol  =         0.00000000
  ---------------------------------------------------
  free energy    TOTEN  =        -9.66737627 eV

  energy without entropy =       -9.31538273  energy(sigma->0) =       -9.49137950


--------------------------------------------------------------------------------------------------------




--------------------------------------- Iteration      1(  34)  ---------------------------------------


    POTLOK:  cpu time    0.2757: real time    0.2756
    SETDIJ:  cpu time    0.0101: real time    0.0101
     EDDAV:  cpu time    0.1531: real time    0.1531
       DOS:  cpu time    0.0003: real time    0.0003
    CHARGE:  cpu time    0.0736: real time    0.0735
    MIXING:  cpu time    0.0265: real time    0.0265
    --------------------------------------------
      LOOP:  cpu time    0.5393: real time    0.5391

 eigenvalue-minimisations  :    56
 total energy-change (2. order) :-0.1061906E-05  (-0.6681978E-08)
 number of electron       8.0000156 magnetization       0.0000000
 augmentation part        0.1998064 magnetization       0.0000004

 Broyden mixing:
  rms(total) = 0.17585E-02    rms(broyden)= 0.17584E-02
  rms(prec ) = 0.23970E-02
  weight for this iteration     100.00

 eigenvalues of (default mixing * dielectric matrix)
  average eigenvalue GAMMA=   1.7026
 13.3027  3.6877  3.6877  2.3169  2.3169  2.5325  1.3436  1.3436  0.9718  2.0142
  1.5048  1.5048  0.9748  0.9748  0.9552  0.9552  0.8142  0.8142  0.7781  0.7781
  0.7405  0.7405  0.5122  0.6663  0.6663  0.6293  0.6293  0.6099  0.6099

 Free energy of the ion-electron system (eV)
  ---------------------------------------------------
  alpha Z        PSCENC =         0.12374184
  Ewald energy   TEWEN  =       269.60691640
  -Hartree energ DENC   =      -292.91020790
  -exchange      EXHF   =         0.00000000
  -V(xc)+E(xc)   XCENC  =        23.86528115
  PAW double counting   =       196.74081713     -197.05830815
  entropy T*S    EENTRO =        -0.35198207
  eigenvalues    EBANDS =      -109.24983880
  atomic energy  EATOM  =        99.56620307
  Solvation  Ediel_sol  =         0.00000000
  ---------------------------------------------------
  free energy    TOTEN  =        -9.66737733 eV

  energy without entropy =       -9.31539526  energy(sigma->0) =       -9.49138630


--------------------------------------------------------------------------------------------------------




--------------------------------------- Iteration      1(  35)  ---------------------------------------


    POTLOK:  cpu time    0.2755: real time    0.2754
    SETDIJ:  cpu time    0.0101: real time    0.0101
     EDDAV:  cpu time    0.1378: real time    0.1378
       DOS:  cpu time    0.0003: real time    0.0003
    CHARGE:  cpu time    0.0736: real time    0.0735
    MIXING:  cpu time    0.0274: real time    0.0274
    --------------------------------------------
      LOOP:  cpu time    0.5246: real time    0.5245

 eigenvalue-minimisations  :    48
 total energy-change (2. order) :-0.3085473E-05  (-0.2122278E-07)
 number of electron       8.0000156 magnetization       0.0000000
 augmentation part        0.1997529 magnetization      -0.0000003

 Broyden mixing:
  rms(total) = 0.24212E-02    rms(broyden)= 0.24208E-02
  rms(prec ) = 0.32624E-02
  weight for this iteration     100.00

 eigenvalues of (default mixing * dielectric matrix)
  average eigenvalue GAMMA=   1.7375
 13.5060  3.9212  3.9212  2.3468  2.3468  2.5671  1.3436  1.3436  0.9718  2.1010
  1.7074  1.7074  1.0724  1.0724  0.9666  0.9666  0.8312  0.8312  0.9261  0.9261
  0.7757  0.7757  0.7302  0.7302  0.5122  0.6698  0.6698  0.6568  0.6316  0.5961

 Free energy of the ion-electron system (eV)
  ---------------------------------------------------
  alpha Z        PSCENC =         0.12374184
  Ewald energy   TEWEN  =       269.60691640
  -Hartree energ DENC   =      -292.91276246
  -exchange      EXHF   =         0.00000000
  -V(xc)+E(xc)   XCENC  =        23.86578919
  PAW double counting   =       196.75186751     -197.06937905
  entropy T*S    EENTRO =        -0.35208633
  eigenvalues    EBANDS =      -109.24767059
  atomic energy  EATOM  =        99.56620307
  Solvation  Ediel_sol  =         0.00000000
  ---------------------------------------------------
  free energy    TOTEN  =        -9.66738042 eV

  energy without entropy =       -9.31529409  energy(sigma->0) =       -9.49133725


--------------------------------------------------------------------------------------------------------




--------------------------------------- Iteration      1(  36)  ---------------------------------------


    POTLOK:  cpu time    0.2778: real time    0.2778
    SETDIJ:  cpu time    0.0102: real time    0.0102
     EDDAV:  cpu time    0.1541: real time    0.1541
       DOS:  cpu time    0.0003: real time    0.0003
    CHARGE:  cpu time    0.0738: real time    0.0737
    MIXING:  cpu time    0.0286: real time    0.0286
    --------------------------------------------
      LOOP:  cpu time    0.5448: real time    0.5447

 eigenvalue-minimisations  :    56
 total energy-change (2. order) : 0.3846273E-05  (-0.1766765E-07)
 number of electron       8.0000156 magnetization       0.0000000
 augmentation part        0.1998309 magnetization       0.0000003

 Broyden mixing:
  rms(total) = 0.15151E-02    rms(broyden)= 0.15139E-02
  rms(prec ) = 0.20399E-02
  weight for this iteration     100.00

 eigenvalues of (default mixing * dielectric matrix)
  average eigenvalue GAMMA=   1.7730
 13.8604  4.5449  4.5449  2.3601  2.3601  2.5718  1.3436  1.3436  0.9718  2.2819
  1.8466  1.8466  0.9674  0.9674  1.0931  1.0931  0.8533  0.8533  0.7962  0.7962
  0.8380  0.8380  0.7106  0.7106  0.7810  0.7810  0.5122  0.6658  0.6208  0.6208
  0.5887

 Free energy of the ion-electron system (eV)
  ---------------------------------------------------
  alpha Z        PSCENC =         0.12374184
  Ewald energy   TEWEN  =       269.60691640
  -Hartree energ DENC   =      -292.90502043
  -exchange      EXHF   =         0.00000000
  -V(xc)+E(xc)   XCENC  =        23.86530918
  PAW double counting   =       196.74404363     -197.06154352
  entropy T*S    EENTRO =        -0.35193201
  eigenvalues    EBANDS =      -109.25509474
  atomic energy  EATOM  =        99.56620307
  Solvation  Ediel_sol  =         0.00000000
  ---------------------------------------------------
  free energy    TOTEN  =        -9.66737657 eV

  energy without entropy =       -9.31544456  energy(sigma->0) =       -9.49141057


--------------------------------------------------------------------------------------------------------




--------------------------------------- Iteration      1(  37)  ---------------------------------------


    POTLOK:  cpu time    0.2755: real time    0.2754
    SETDIJ:  cpu time    0.0102: real time    0.0102
     EDDAV:  cpu time    0.1051: real time    0.1050
       DOS:  cpu time    0.0003: real time    0.0003
    CHARGE:  cpu time    0.0732: real time    0.0732
    MIXING:  cpu time    0.0296: real time    0.0296
    --------------------------------------------
      LOOP:  cpu time    0.4939: real time    0.4937

 eigenvalue-minimisations  :    32
 total energy-change (2. order) : 0.1164292E-05  (-0.1588667E-07)
 number of electron       8.0000156 magnetization       0.0000000
 augmentation part        0.1999099 magnetization      -0.0000001

 Broyden mixing:
  rms(total) = 0.59870E-03    rms(broyden)= 0.59313E-03
  rms(prec ) = 0.80117E-03
  weight for this iteration     100.00

 eigenvalues of (default mixing * dielectric matrix)
  average eigenvalue GAMMA=   1.8812
 14.1589  8.4834  3.9817  2.3475  2.3475  2.5932  2.5932  2.3093  1.3436  1.3436
  0.9718  1.3791  1.3791  0.9703  0.9703  1.0223  1.0223  1.0426  0.8263  0.8263
  0.7774  0.7774  0.7944  0.7944  0.7348  0.7348  0.6810  0.6810  0.6278  0.6184
  0.5121  0.5526

 Free energy of the ion-electron system (eV)
  ---------------------------------------------------
  alpha Z        PSCENC =         0.12374184
  Ewald energy   TEWEN  =       269.60691640
  -Hartree energ DENC   =      -292.89784279
  -exchange      EXHF   =         0.00000000
  -V(xc)+E(xc)   XCENC  =        23.86483314
  PAW double counting   =       196.73639429     -197.05388210
  entropy T*S    EENTRO =        -0.35177358
  eigenvalues    EBANDS =      -109.26196569
  atomic energy  EATOM  =        99.56620307
  Solvation  Ediel_sol  =         0.00000000
  ---------------------------------------------------
  free energy    TOTEN  =        -9.66737541 eV

  energy without entropy =       -9.31560183  energy(sigma->0) =       -9.49148862


--------------------------------------------------------------------------------------------------------




--------------------------------------- Iteration      1(  38)  ---------------------------------------


    POTLOK:  cpu time    0.2755: real time    0.2754
    SETDIJ:  cpu time    0.0102: real time    0.0102
     EDDAV:  cpu time    0.1537: real time    0.1536
       DOS:  cpu time    0.0003: real time    0.0003
    --------------------------------------------
      LOOP:  cpu time    0.4396: real time    0.4395

 eigenvalue-minimisations  :    56
 total energy-change (2. order) :-0.6374853E-06  (-0.9326989E-08)
 number of electron       8.0000156 magnetization       0.0000000
 augmentation part        0.1999099 magnetization      -0.0000001

 Free energy of the ion-electron system (eV)
  ---------------------------------------------------
  alpha Z        PSCENC =         0.12374184
  Ewald energy   TEWEN  =       269.60691640
  -Hartree energ DENC   =      -292.89651672
  -exchange      EXHF   =         0.00000000
  -V(xc)+E(xc)   XCENC  =        23.86479140
  PAW double counting   =       196.73614187     -197.05362842
  entropy T*S    EENTRO =        -0.35174142
  eigenvalues    EBANDS =      -109.26328408
  atomic energy  EATOM  =        99.56620307
  Solvation  Ediel_sol  =         0.00000000
  ---------------------------------------------------
  free energy    TOTEN  =        -9.66737605 eV

  energy without entropy =       -9.31563463  energy(sigma->0) =       -9.49150534


--------------------------------------------------------------------------------------------------------




 average (electrostatic) potential at core
  the test charge radii are     0.5201
  (the norm of the test charge is              1.0001)
       1 -47.5085       2 -47.5085       3 -47.5085       4 -47.5085       5 -47.5085
       6 -47.5085       7 -47.5085       8 -47.5085
 
 
 
 E-fermi :  -1.8006     XC(G=0):  -1.1109     alpha+bet : -0.1753


 spin component 1

 k-point     1 :       0.0000    0.0000    0.0000
  band No.  band energies     occupation 
      1     -20.8154      1.00000
      2     -16.0526      1.00000
      3     -16.0526      1.00000
      4      -1.7334      0.31721
      5      -1.7334      0.31721
      6      -1.6726      0.18259
      7      -1.6726      0.18259
      8      -1.3280      0.00042
      9       0.0495      0.00000
     10       0.0952      0.00000
     11       0.3701      0.00000
     12       0.4076      0.00000

 spin component 2

 k-point     1 :       0.0000    0.0000    0.0000
  band No.  band energies     occupation 
      1     -20.8154      1.00000
      2     -16.0526      1.00000
      3     -16.0526      1.00000
      4      -1.7334      0.31720
      5      -1.7334      0.31720
      6      -1.6726      0.18259
      7      -1.6726      0.18259
      8      -1.3280      0.00042
      9       0.0496      0.00000
     10       0.0955      0.00000
     11       0.3702      0.00000
     12       0.4077      0.00000


--------------------------------------------------------------------------------------------------------


 soft charge-density along one line, spin component           1
         0         1         2         3         4         5         6         7         8         9
 total charge-density along one line
 
 soft charge-density along one line, spin component           2
         0         1         2         3         4         5         6         7         8         9
 total charge-density along one line
 
 pseudopotential strength for first ion, spin component:           1
 -2.417  -4.180   0.000  -0.000  -0.000
 -4.180  -7.142   0.000  -0.000  -0.000
  0.000   0.000  -0.318  -0.000  -0.000
 -0.000  -0.000  -0.000  -0.301   0.000
 -0.000  -0.000  -0.000   0.000  -0.318
 pseudopotential strength for first ion, spin component:           2
 -2.417  -4.180   0.000  -0.000  -0.000
 -4.180  -7.142   0.000  -0.000  -0.000
  0.000   0.000  -0.318  -0.000  -0.000
 -0.000  -0.000  -0.000  -0.301   0.000
 -0.000  -0.000  -0.000   0.000  -0.318
 total augmentation occupancy for first ion, spin component:           1
  4.432  -0.915   0.000   0.000   0.000
 -0.915   0.257   0.000   0.000  -0.000
 -0.000   0.000   0.002   0.000   0.000
  0.000   0.000   0.000   0.159   0.000
 -0.000  -0.000   0.000   0.000   0.002
 total augmentation occupancy for first ion, spin component:           2
  0.000  -0.000   0.000   0.000   0.000
 -0.000  -0.000  -0.000   0.000   0.000
  0.000   0.000   0.000   0.000   0.000
  0.000   0.000   0.000  -0.000   0.000
  0.000   0.000   0.000   0.000   0.000


------------------------ aborting loop because EDIFF is reached ----------------------------------------


    CHARGE:  cpu time    0.0793: real time    0.0792
    FORLOC:  cpu time    0.0115: real time    0.0115
    FORNL :  cpu time    0.0257: real time    0.0257
    STRESS:  cpu time    0.0957: real time    0.0957
    FORHAR:  cpu time    0.0267: real time    0.0267
    MIXING:  cpu time    0.0308: real time    0.0308
    OFIELD:  cpu time    0.0001: real time    0.0001

  FORCE on cell =-STRESS in cart. coord.  units (eV):
  Direction    XX          YY          ZZ          XY          YZ          ZX
  --------------------------------------------------------------------------------------
  Alpha Z     0.12374     0.12374     0.12374
  Ewald     -82.28448   -82.28448   434.17588     0.00000     0.00000     0.00000
  Hartree     0.00908     0.00908   292.82083    -0.00000    -0.00000    -0.00000
  E(xc)     -26.96182   -26.96182   -23.88175     0.00000    -0.00000    -0.00000
  Local      31.33737    31.33737  -700.79729     0.00000    -0.00000    -0.00000
  n-local   -26.81779   -26.81779   -33.71938     0.00000    -0.00000     0.00000
  augment     1.38544     1.38544     0.49377     0.00000     0.00000     0.00000
  Kinetic   101.50961   101.50961    84.85502    -0.00000    -0.00000    -0.00000
  Fock        0.00000     0.00000     0.00000     0.00000     0.00000     0.00000
  -------------------------------------------------------------------------------------
  Total      -1.69885    -1.69885    54.07082    -0.00000    -0.00000    -0.00000
  in kB      -2.16021    -2.16021    68.75479    -0.00000    -0.00000    -0.00000
  external pressure =       21.48 kB  Pullay stress =        0.00 kB


 VOLUME and BASIS-vectors are now :
 -----------------------------------------------------------------------------
  energy-cutoff  :      300.00
  volume of cell :     1260.00
      direct lattice vectors                 reciprocal lattice vectors
    15.000000000  0.000000000  0.000000000     0.066666667 -0.000000000  0.000000000
     0.000000000 15.000000000  0.000000000     0.000000000  0.066666667  0.000000000
     0.000000000  0.000000000  5.600000000    -0.000000000 -0.000000000  0.178571429

  length of vectors
    15.000000000 15.000000000  5.600000000     0.066666667  0.066666667  0.178571429


 FORCES acting on ions
    electron-ion (+dipol)            ewald-force                    non-local-force                 convergence-correction
 -----------------------------------------------------------------------------------------------
   0.237E-16 -.155E-16 -.452E-15   0.188E-18 0.199E-18 0.000E+00   0.975E-26 0.969E-26 0.000E+00   -.425E-15 -.932E-15 0.399E-15
   -.138E-17 -.354E-16 0.351E-15   0.153E-18 0.264E-18 -.888E-15   -.774E-26 0.808E-26 0.000E+00   -.439E-15 -.927E-15 0.293E-15
   0.504E-17 -.286E-16 0.974E-15   0.214E-18 0.270E-18 0.444E-14   -.761E-27 -.646E-26 0.000E+00   -.442E-15 -.933E-15 -.183E-16
   0.296E-16 -.207E-16 0.904E-15   0.596E-19 0.143E-18 -.275E-14   -.865E-26 -.889E-26 0.000E+00   -.448E-15 -.943E-15 -.160E-15
   0.383E-16 -.743E-17 0.283E-15   0.805E-19 0.340E-19 -.266E-14   0.830E-26 0.162E-25 0.000E+00   -.446E-15 -.945E-15 -.172E-15
   0.325E-16 -.159E-16 0.399E-16   -.742E-19 -.936E-19 -.355E-14   0.801E-26 0.222E-26 0.000E+00   -.440E-15 -.952E-15 0.401E-17
   0.384E-16 -.894E-17 0.120E-14   -.134E-19 -.868E-19 0.000E+00   0.102E-25 -.646E-26 0.000E+00   -.425E-15 -.954E-15 -.269E-15
   0.381E-16 -.905E-17 0.251E-14   -.479E-19 -.227E-19 -.353E-14   0.315E-27 -.646E-26 0.000E+00   -.424E-15 -.939E-15 -.591E-16
 -----------------------------------------------------------------------------------------------
   0.204E-15 -.142E-15 0.581E-14   0.560E-18 0.707E-18 -.895E-14   0.194E-25 0.788E-26 0.000E+00   -.349E-14 -.752E-14 0.183E-16
 
 
 POSITION                                       TOTAL-FORCE (eV/Angst)
 -----------------------------------------------------------------------------------
      0.00000      0.00000      0.00000        -0.000000     -0.000000      0.000000
      0.00000      0.00000      0.70000         0.000000      0.000000      0.000000
      0.00000      0.00000      1.40000         0.000000     -0.000000     -0.000000
      0.00000      0.00000      2.10000        -0.000000      0.000000     -0.000000
      0.00000      0.00000      2.80000         0.000000     -0.000000     -0.000000
      0.00000      0.00000      3.50000        -0.000000      0.000000      0.000000
      0.00000      0.00000      4.20000         0.000000      0.000000     -0.000000
      0.00000      0.00000      4.90000         0.000000      0.000000      0.000000
 -----------------------------------------------------------------------------------
    total drift:                               -0.000000     -0.000000     -0.000000


--------------------------------------------------------------------------------------------------------



  FREE ENERGIE OF THE ION-ELECTRON SYSTEM (eV)
  ---------------------------------------------------
  free  energy   TOTEN  =        -9.66737605 eV

  energy  without entropy=       -9.31563463  energy(sigma->0) =       -9.49150534
 


--------------------------------------------------------------------------------------------------------


    POTLOK:  cpu time    0.2859: real time    0.2859


--------------------------------------------------------------------------------------------------------


     LOOP+:  cpu time   18.7300: real time   18.7817
    4ORBIT:  cpu time    0.0000: real time    0.0000

 total amount of memory used by VASP MPI-rank0    63826. kBytes
=======================================================================

   base      :      30000. kBytes
   nonl-proj :       2481. kBytes
   fftplans  :       7296. kBytes
   grid      :      22609. kBytes
   one-center:         19. kBytes
   wavefun   :       1421. kBytes
 
  
  
 General timing and accounting informations for this job:
 ========================================================
  
                  Total CPU time used (sec):       19.330
                            User time (sec):       18.517
                          System time (sec):        0.813
                         Elapsed time (sec):       19.725
  
                   Maximum memory used (kb):      200484.
                   Average memory used (kb):           0.
  
                          Minor page faults:       230731
                          Major page faults:            0
                 Voluntary context switches:         1016
