<?xml version="1.0" encoding="ISO-8859-1"?>
<modeling>
 <generator>
  <i name="program" type="string">vasp </i>
  <i name="version" type="string">5.4.4.18Apr17-6-g9f103f2a35  </i>
  <i name="subversion" type="string">(build Aug 24 2024 05:40:03) complex            parallel </i>
  <i name="platform" type="string">IFC22_IMPI </i>
  <i name="date" type="string">2024 11 22 </i>
  <i name="time" type="string">21:38:19 </i>
 </generator>
 <incar>
  <i type="string" name="PREC">normal</i>
  <i type="int" name="ISPIN">     2</i>
  <i type="int" name="ICHARG">     2</i>
  <i type="int" name="NELM">   100</i>
  <i name="EDIFF">      0.00000100</i>
  <i type="int" name="NSW">     0</i>
  <i name="ENCUT">    300.00000000</i>
  <i name="NUPDOWN">      0.00000000</i>
  <i type="int" name="ISMEAR">     0</i>
  <i name="SIGMA">      0.20000000</i>
  <i type="logical" name="LWAVE"> F  </i>
  <i type="logical" name="LCHARG"> F  </i>
  <v type="int" name="KPOINT_BSE">    -1     0     0     0</v>
  <i type="int" name="NELM">   100</i>
 </incar>
 <structure name="primitive_cell" >
  <crystal>
   <varray name="basis" >
    <v>      15.00000000       0.00000000       0.00000000 </v>
    <v>       0.00000000      15.00000000       0.00000000 </v>
    <v>       0.00000000       0.00000000       0.70000000 </v>
   </varray>
   <i name="volume">    157.50000000 </i>
   <varray name="rec_basis" >
    <v>       0.06666667      -0.00000000       0.00000000 </v>
    <v>       0.00000000       0.06666667       0.00000000 </v>
    <v>      -0.00000000      -0.00000000       1.42857143 </v>
   </varray>
  </crystal>
  <varray name="positions" >
   <v>       0.00000000       0.00000000       0.00000000 </v>
  </varray>
 </structure>
 <varray name="primitive_index" >
  <v type="int" >        1 </v>
 </varray>
 <kpoints>
  <generation param="Gamma">
   <v type="int" name="divisions">       1        1        1 </v>
   <v name="usershift">      0.00000000       0.00000000       0.00000000 </v>
   <v name="genvec1">      1.00000000       0.00000000       0.00000000 </v>
   <v name="genvec2">      0.00000000       1.00000000       0.00000000 </v>
   <v name="genvec3">      0.00000000      -0.00000000       1.00000000 </v>
   <v name="shift">      0.00000000       0.00000000       0.00000000 </v>
  </generation>
  <varray name="kpointlist" >
   <v>       0.00000000       0.00000000       0.00000000 </v>
  </varray>
  <varray name="weights" >
   <v>       1.00000000 </v>
  </varray>
 </kpoints>
 <parameters>
  <separator name="general" >
   <i type="string" name="SYSTEM">unknown system</i>
   <i type="logical" name="LCOMPAT"> F  </i>
  </separator>
  <separator name="electronic" >
   <i type="string" name="PREC">normal</i>
   <i name="ENMAX">    300.00000000</i>
   <i name="ENAUG">    400.00000000</i>
   <i name="EDIFF">      0.00000100</i>
   <i type="int" name="IALGO">    38</i>
   <i type="int" name="IWAVPR">    10</i>
   <i type="int" name="NBANDS">    12</i>
   <i name="NELECT">      8.00000000</i>
   <i type="int" name="TURBO">     0</i>
   <i type="int" name="IRESTART">     0</i>
   <i type="int" name="NREBOOT">     0</i>
   <i type="int" name="NMIN">     0</i>
   <i name="EREF">      0.00000000</i>
   <separator name="electronic smearing" >
    <i type="int" name="ISMEAR">     0</i>
    <i name="SIGMA">      0.20000000</i>
    <i name="KSPACING">      0.50000000</i>
    <i type="logical" name="KGAMMA"> T  </i>
   </separator>
   <separator name="electronic projectors" >
    <i type="logical" name="LREAL"> F  </i>
    <v name="ROPT">      0.00000000</v>
    <i type="int" name="LMAXPAW">  -100</i>
    <i type="int" name="LMAXMIX">     2</i>
    <i type="logical" name="NLSPLINE"> F  </i>
   </separator>
   <separator name="electronic startup" >
    <i type="int" name="ISTART">     0</i>
    <i type="int" name="ICHARG">     2</i>
    <i type="int" name="INIWAV">     1</i>
   </separator>
   <separator name="electronic spin" >
    <i type="int" name="ISPIN">     2</i>
    <i type="logical" name="LNONCOLLINEAR"> F  </i>
    <v name="MAGMOM">      0.00000000      0.00000000      0.00000000      0.00000000      0.00000000      0.00000000      0.00000000      0.00000000</v>
    <i name="NUPDOWN">      0.00000000</i>
    <i type="logical" name="LSORBIT"> F  </i>
    <v name="SAXIS">      0.00000000      0.00000000      1.00000000</v>
    <i type="logical" name="LSPIRAL"> F  </i>
    <v name="QSPIRAL">      0.00000000      0.00000000      0.00000000</v>
    <i type="logical" name="LZEROZ"> F  </i>
   </separator>
   <separator name="electronic exchange-correlation" >
    <i type="logical" name="LASPH"> F  </i>
    <i type="logical" name="LMETAGGA"> F  </i>
   </separator>
   <separator name="electronic convergence" >
    <i type="int" name="NELM">   100</i>
    <i type="int" name="NELMDL">    -5</i>
    <i type="int" name="NELMIN">     2</i>
    <i name="ENINI">    300.00000000</i>
    <separator name="electronic convergence detail" >
     <i type="logical" name="LDIAG"> T  </i>
     <i type="logical" name="LSUBROT"> F  </i>
     <i name="WEIMIN">      0.00000000</i>
     <i name="EBREAK">      0.00000002</i>
     <i name="DEPER">      0.30000000</i>
     <i type="int" name="NRMM">     4</i>
     <i name="TIME">      0.40000000</i>
    </separator>
   </separator>
   <separator name="electronic mixer" >
    <i name="AMIX">      0.40000000</i>
    <i name="BMIX">      1.00000000</i>
    <i name="AMIN">      0.10000000</i>
    <i name="AMIX_MAG">      1.60000000</i>
    <i name="BMIX_MAG">      1.00000000</i>
    <separator name="electronic mixer details" >
     <i type="int" name="IMIX">     4</i>
     <i type="logical" name="MIXFIRST"> F  </i>
     <i type="int" name="MAXMIX">   -45</i>
     <i name="WC">    100.00000000</i>
     <i type="int" name="INIMIX">     1</i>
     <i type="int" name="MIXPRE">     1</i>
     <i type="int" name="MREMOVE">     5</i>
    </separator>
   </separator>
   <separator name="electronic dipolcorrection" >
    <i type="logical" name="LDIPOL"> F  </i>
    <i type="logical" name="LMONO"> F  </i>
    <i type="int" name="IDIPOL">     0</i>
    <i name="EPSILON">      1.00000000</i>
    <v name="DIPOL">   -100.00000000   -100.00000000   -100.00000000</v>
    <i name="EFIELD">      0.00000000</i>
   </separator>
  </separator>
  <separator name="grids" >
   <i type="int" name="NGX">    64</i>
   <i type="int" name="NGY">    64</i>
   <i type="int" name="NGZ">    24</i>
   <i type="int" name="NGXF">   128</i>
   <i type="int" name="NGYF">   128</i>
   <i type="int" name="NGZF">    48</i>
   <i type="logical" name="ADDGRID"> F  </i>
  </separator>
  <separator name="ionic" >
   <i type="int" name="NSW">     0</i>
   <i type="int" name="IBRION">    -1</i>
   <i type="int" name="MDALGO">     0</i>
   <i type="int" name="ISIF">     2</i>
   <i name="PSTRESS">      0.00000000</i>
   <i name="EDIFFG">      0.00001000</i>
   <i type="int" name="NFREE">     0</i>
   <i name="POTIM">      0.50000000</i>
   <i name="SMASS">     -3.00000000</i>
   <i name="SCALEE">      1.00000000</i>
  </separator>
  <separator name="ionic md" >
   <i name="TEBEG">      0.00010000</i>
   <i name="TEEND">      0.00010000</i>
   <i type="int" name="NBLOCK">     1</i>
   <i type="int" name="KBLOCK">     1</i>
   <i type="int" name="NPACO">   256</i>
   <i name="APACO">     16.00000000</i>
  </separator>
  <separator name="symmetry" >
   <i type="int" name="ISYM">     2</i>
   <i name="SYMPREC">      0.00001000</i>
  </separator>
  <separator name="dos" >
   <i type="int" name="LORBIT">     0</i>
   <v name="RWIGS">     -1.00000000</v>
   <i type="int" name="NEDOS">   301</i>
   <i name="EMIN">     10.00000000</i>
   <i name="EMAX">    -10.00000000</i>
   <i name="EFERMI">      0.00000000</i>
  </separator>
  <separator name="writing" >
   <i type="int" name="NWRITE">     2</i>
   <i type="logical" name="LWAVE"> F  </i>
   <i type="logical" name="LDOWNSAMPLE"> F  </i>
   <i type="logical" name="LCHARG"> F  </i>
   <i type="logical" name="LPARD"> F  </i>
   <i type="logical" name="LVTOT"> F  </i>
   <i type="logical" name="LVHAR"> F  </i>
   <i type="logical" name="LELF"> F  </i>
   <i type="logical" name="LOPTICS"> F  </i>
   <v name="STM">      0.00000000      0.00000000      0.00000000      0.00000000      0.00000000      0.00000000      0.00000000</v>
  </separator>
  <separator name="performance" >
   <i type="int" name="NPAR">     4</i>
   <i type="int" name="NSIM">     4</i>
   <i type="int" name="NBLK">    -1</i>
   <i type="logical" name="LPLANE"> T  </i>
   <i type="logical" name="LSCALAPACK"> T  </i>
   <i type="logical" name="LSCAAWARE"> F  </i>
   <i type="logical" name="LSCALU"> F  </i>
   <i type="logical" name="LASYNC"> F  </i>
   <i type="logical" name="LORBITALREAL"> F  </i>
  </separator>
  <separator name="miscellaneous" >
   <i type="int" name="IDIOT">     3</i>
   <i type="int" name="ISPECIAL">     0</i>
   <i type="logical" name="LMUSIC"> F  </i>
   <v name="POMASS">      1.00000000</v>
   <v name="DARWINR">      0.00000000</v>
   <v name="DARWINV">      1.00000000</v>
   <i type="logical" name="LCORR"> T  </i>
  </separator>
  <i type="logical" name="GGA_COMPAT"> T  </i>
  <i type="logical" name="LBERRY"> F  </i>
  <i type="int" name="ICORELEVEL">     0</i>
  <i type="logical" name="LDAU"> F  </i>
  <i type="int" name="I_CONSTRAINED_M">     0</i>
  <separator name="electronic exchange-correlation" >
   <i type="string" name="GGA">--</i>
   <i type="int" name="VOSKOWN">     0</i>
   <i type="logical" name="LHFCALC"> F  </i>
   <i type="string" name="PRECFOCK"></i>
   <i type="logical" name="LSYMGRAD"> F  </i>
   <i type="logical" name="LHFONE"> F  </i>
   <i type="logical" name="LRHFCALC"> F  </i>
   <i type="logical" name="LTHOMAS"> F  </i>
   <i type="logical" name="LMODELHF"> F  </i>
   <i name="ENCUT4O">     -1.00000000</i>
   <i type="int" name="EXXOEP">     0</i>
   <i type="int" name="FOURORBIT">     0</i>
   <i name="AEXX">      0.00000000</i>
   <i name="HFALPHA">      0.00000000</i>
   <i name="MCALPHA">      0.00000000</i>
   <i name="ALDAX">      1.00000000</i>
   <i name="AGGAX">      1.00000000</i>
   <i name="ALDAC">      1.00000000</i>
   <i name="AGGAC">      1.00000000</i>
   <i type="int" name="NKREDX">     1</i>
   <i type="int" name="NKREDY">     1</i>
   <i type="int" name="NKREDZ">     1</i>
   <i type="logical" name="SHIFTRED"> F  </i>
   <i type="logical" name="ODDONLY"> F  </i>
   <i type="logical" name="EVENONLY"> F  </i>
   <i type="int" name="LMAXFOCK">     0</i>
   <i type="int" name="NMAXFOCKAE">     0</i>
   <i type="logical" name="LFOCKAEDFT"> F  </i>
   <i name="HFSCREEN">      0.00000000</i>
   <i name="HFSCREENC">      0.00000000</i>
   <i type="int" name="NBANDSGWLOW">     0</i>
  </separator>
  <separator name="vdW DFT" >
   <i type="logical" name="LUSE_VDW"> F  </i>
   <i name="Zab_VDW">     -0.84910000</i>
   <i name="PARAM1">      0.12340000</i>
   <i name="PARAM2">      1.00000000</i>
   <i name="PARAM3">      0.00000000</i>
  </separator>
  <separator name="model GW" >
   <i type="int" name="MODEL_GW">     0</i>
   <i name="MODEL_EPS0">     94.50000000</i>
   <i name="MODEL_ALPHA">      1.00000000</i>
  </separator>
  <separator name="linear response parameters" >
   <i type="logical" name="LEPSILON"> F  </i>
   <i type="logical" name="LRPA"> F  </i>
   <i type="logical" name="LNABLA"> F  </i>
   <i type="logical" name="LVEL"> F  </i>
   <i type="int" name="KINTER">     0</i>
   <i name="CSHIFT">      0.10000000</i>
   <i name="OMEGAMAX">     -1.00000000</i>
   <i name="DEG_THRESHOLD">      0.00200000</i>
   <i name="RTIME">     -0.10000000</i>
   <i name="WPLASMAI">      0.00000000</i>
   <v name="DFIELD">      0.00000000      0.00000000      0.00000000</v>
   <v name="WPLASMA">      0.00000000      0.00000000      0.00000000      0.00000000      0.00000000      0.00000000      0.00000000      0.00000000      0.00000000</v>
  </separator>
  <separator name="orbital magnetization" >
   <i type="logical" name="NUCIND"> F  </i>
   <v name="MAGPOS">      0.00000000      0.00000000      0.00000000</v>
   <i type="logical" name="LNICSALL"> T  </i>
   <i type="logical" name="ORBITALMAG"> F  </i>
   <i type="logical" name="LMAGBLOCH"> F  </i>
   <i type="logical" name="LCHIMAG"> F  </i>
   <i type="logical" name="LGAUGE"> T  </i>
   <i type="int" name="MAGATOM">     0</i>
   <v name="MAGDIPOL">      0.00000000      0.00000000      0.00000000</v>
   <v name="AVECCONST">      0.00000000      0.00000000      0.00000000</v>
  </separator>
  <separator name="response functions" >
   <i type="logical" name="LADDER"> F  </i>
   <i type="logical" name="LRPAFORCE"> F  </i>
   <i type="logical" name="LFXC"> F  </i>
   <i type="logical" name="LHARTREE"> T  </i>
   <i type="int" name="IBSE">     0</i>
   <v type="int" name="KPOINT">    -1     0     0     0</v>
   <i type="logical" name="LTCTE"> F  </i>
   <i type="logical" name="LTETE"> F  </i>
   <i type="logical" name="LTRIPLET"> F  </i>
   <i type="logical" name="LFXCEPS"> F  </i>
   <i type="logical" name="LFXHEG"> F  </i>
   <i type="int" name="NATURALO">     2</i>
   <i type="logical" name="L2ORDER"> F  </i>
   <i type="logical" name="LMP2LT"> F  </i>
   <i type="logical" name="LUSEW"> F  </i>
   <i name="ENCUTGW">     -2.00000000</i>
   <i name="ENCUTGWSOFT">     -2.00000000</i>
   <i name="ENCUTLF">     -1.00000000</i>
   <i type="int" name="LMAXMP2">    -1</i>
   <i name="SCISSOR">      0.00000000</i>
   <i type="int" name="NOMEGA">     0</i>
   <i type="int" name="NOMEGAR">     0</i>
   <i type="int" name="NBANDSGW">    -1</i>
   <i type="int" name="NBANDSO">    -1</i>
   <i type="int" name="NBANDSV">    -1</i>
   <i type="int" name="NELM">   100</i>
   <i type="int" name="NELMHF">     1</i>
   <i type="int" name="DIM">     3</i>
   <i type="int" name="ANTIRES">     0</i>
   <i name="OMEGAMAX">    -30.00000000</i>
   <i name="OMEGAMIN">    -30.00000000</i>
   <i name="OMEGATL">   -200.00000000</i>
   <i type="int" name="OMEGAGRID">   140</i>
   <i name="CSHIFT">     -0.10000000</i>
   <i type="logical" name="SELFENERGY"> F  </i>
   <i type="logical" name="LSPECTRAL"> F  </i>
   <i type="logical" name="LSPECTRALGW"> F  </i>
   <i type="logical" name="LSINGLES"> F  </i>
   <i type="logical" name="LFERMIGW"> F  </i>
   <i type="logical" name="ODDONLYGW"> F  </i>
   <i type="logical" name="EVENONLYGW"> F  </i>
   <i type="int" name="NKREDLFX">     1</i>
   <i type="int" name="NKREDLFY">     1</i>
   <i type="int" name="NKREDLFZ">     1</i>
   <i type="int" name="MAXMEM">  2800</i>
   <i type="int" name="TELESCOPE">     0</i>
   <i type="int" name="TAUPAR">     1</i>
   <i type="int" name="OMEGAPAR">    -1</i>
   <i name="LAMBDA">      1.00000000</i>
  </separator>
  <separator name="External order field" >
   <i name="OFIELD_KAPPA">      0.00000000</i>
   <v name="OFIELD_K">      0.00000000      0.00000000      0.00000000</v>
   <i name="OFIELD_Q6_NEAR">      0.00000000</i>
   <i name="OFIELD_Q6_FAR">      0.00000000</i>
   <i name="OFIELD_A">      0.00000000</i>
  </separator>
 </parameters>
 <atominfo>
  <atoms>       8 </atoms>
  <types>       1 </types>
  <array name="atoms" >
   <dimension dim="1">ion</dimension>
   <field type="string">element</field>
   <field type="int">atomtype</field>
   <set>
    <rc><c>H </c><c>   1</c></rc>
    <rc><c>H </c><c>   1</c></rc>
    <rc><c>H </c><c>   1</c></rc>
    <rc><c>H </c><c>   1</c></rc>
    <rc><c>H </c><c>   1</c></rc>
    <rc><c>H </c><c>   1</c></rc>
    <rc><c>H </c><c>   1</c></rc>
    <rc><c>H </c><c>   1</c></rc>
   </set>
  </array>
  <array name="atomtypes" >
   <dimension dim="1">type</dimension>
   <field type="int">atomspertype</field>
   <field type="string">element</field>
   <field>mass</field>
   <field>valence</field>
   <field type="string">pseudopotential</field>
   <set>
    <rc><c>   8</c><c>H </c><c>      1.00000000</c><c>      1.00000000</c><c>  PAW_PBE H 15Jun2001                   </c></rc>
   </set>
  </array>
 </atominfo>
 <structure name="initialpos" >
  <crystal>
   <varray name="basis" >
    <v>      15.00000000       0.00000000       0.00000000 </v>
    <v>       0.00000000      15.00000000       0.00000000 </v>
    <v>       0.00000000       0.00000000       5.60000000 </v>
   </varray>
   <i name="volume">   1260.00000000 </i>
   <varray name="rec_basis" >
    <v>       0.06666667      -0.00000000       0.00000000 </v>
    <v>       0.00000000       0.06666667       0.00000000 </v>
    <v>      -0.00000000      -0.00000000       0.17857143 </v>
   </varray>
  </crystal>
  <varray name="positions" >
   <v>       0.00000000       0.00000000       0.00000000 </v>
   <v>       0.00000000       0.00000000       0.12500000 </v>
   <v>       0.00000000       0.00000000       0.25000000 </v>
   <v>       0.00000000       0.00000000       0.37500000 </v>
   <v>       0.00000000       0.00000000       0.50000000 </v>
   <v>       0.00000000       0.00000000       0.62500000 </v>
   <v>       0.00000000       0.00000000       0.75000000 </v>
   <v>       0.00000000       0.00000000       0.87500000 </v>
  </varray>
 </structure>
 <calculation>
  <scstep>
   <time name="dav">    0.21    0.21</time>
   <time name="total">    0.49    0.49</time>
   <energy>
    <i name="alphaZ">      0.12374184 </i>
    <i name="ewald">    269.60691640 </i>
    <i name="hartreedc">   -266.51076336 </i>
    <i name="XCdc">     20.96624788 </i>
    <i name="pawpsdc">     17.07221949 </i>
    <i name="pawaedc">    -17.14324176 </i>
    <i name="eentropy">     -0.05204666 </i>
    <i name="bandstr">   -119.81375976 </i>
    <i name="atom">     99.56620307 </i>
    <i name="e_fr_energy">      3.81551714 </i>
    <i name="e_wo_entrp">      3.86756381 </i>
    <i name="e_0_energy">      3.84154047 </i>
   </energy>
  </scstep>
  <scstep>
   <time name="dav">    0.18    0.18</time>
   <time name="total">    0.18    0.18</time>
   <energy>
    <i name="e_fr_energy">    -13.55914818 </i>
    <i name="e_wo_entrp">    -13.55914818 </i>
    <i name="e_0_energy">    -13.55914818 </i>
   </energy>
  </scstep>
  <scstep>
   <time name="dav">    0.17    0.17</time>
   <time name="total">    0.17    0.17</time>
   <energy>
    <i name="e_fr_energy">    -13.88758151 </i>
    <i name="e_wo_entrp">    -13.87835790 </i>
    <i name="e_0_energy">    -13.88296971 </i>
   </energy>
  </scstep>
  <scstep>
   <time name="dav">    0.14    0.14</time>
   <time name="total">    0.14    0.14</time>
   <energy>
    <i name="e_fr_energy">    -14.08119840 </i>
    <i name="e_wo_entrp">    -13.85849111 </i>
    <i name="e_0_energy">    -13.96984476 </i>
   </energy>
  </scstep>
  <scstep>
   <time name="dav">    0.17    0.17</time>
   <time name="total">    0.25    0.25</time>
   <energy>
    <i name="e_fr_energy">    -14.11823572 </i>
    <i name="e_wo_entrp">    -13.89257072 </i>
    <i name="e_0_energy">    -14.00540322 </i>
   </energy>
  </scstep>
  <scstep>
   <time name="dav">    0.14    0.14</time>
   <time name="total">    0.51    0.51</time>
   <energy>
    <i name="e_fr_energy">    -10.87205275 </i>
    <i name="e_wo_entrp">    -10.64637716 </i>
    <i name="e_0_energy">    -10.75921496 </i>
   </energy>
  </scstep>
  <scstep>
   <time name="dav">    0.14    0.14</time>
   <time name="total">    0.50    0.50</time>
   <energy>
    <i name="e_fr_energy">    -12.34084652 </i>
    <i name="e_wo_entrp">    -12.03466907 </i>
    <i name="e_0_energy">    -12.18775780 </i>
   </energy>
  </scstep>
  <scstep>
   <time name="dav">    0.14    0.14</time>
   <time name="total">    0.51    0.51</time>
   <energy>
    <i name="e_fr_energy">    -10.97736080 </i>
    <i name="e_wo_entrp">    -10.70001838 </i>
    <i name="e_0_energy">    -10.83868959 </i>
   </energy>
  </scstep>
  <scstep>
   <time name="dav">    0.15    0.15</time>
   <time name="total">    0.52    0.52</time>
   <energy>
    <i name="e_fr_energy">    -10.28774353 </i>
    <i name="e_wo_entrp">    -10.03678849 </i>
    <i name="e_0_energy">    -10.16226601 </i>
   </energy>
  </scstep>
  <scstep>
   <time name="dav">    0.14    0.14</time>
   <time name="total">    0.50    0.52</time>
   <energy>
    <i name="e_fr_energy">    -10.86806617 </i>
    <i name="e_wo_entrp">    -10.64239034 </i>
    <i name="e_0_energy">    -10.75522826 </i>
   </energy>
  </scstep>
  <scstep>
   <time name="dav">    0.14    0.14</time>
   <time name="total">    0.51    0.51</time>
   <energy>
    <i name="e_fr_energy">    -10.67980601 </i>
    <i name="e_wo_entrp">    -10.45413018 </i>
    <i name="e_0_energy">    -10.56696809 </i>
   </energy>
  </scstep>
  <scstep>
   <time name="dav">    0.14    0.14</time>
   <time name="total">    0.50    0.50</time>
   <energy>
    <i name="e_fr_energy">    -10.12476547 </i>
    <i name="e_wo_entrp">     -9.89908929 </i>
    <i name="e_0_energy">    -10.01192738 </i>
   </energy>
  </scstep>
  <scstep>
   <time name="dav">    0.14    0.14</time>
   <time name="total">    0.50    0.50</time>
   <energy>
    <i name="e_fr_energy">     -9.96890934 </i>
    <i name="e_wo_entrp">     -9.74315221 </i>
    <i name="e_0_energy">     -9.85603078 </i>
   </energy>
  </scstep>
  <scstep>
   <time name="dav">    0.14    0.14</time>
   <time name="total">    0.50    0.50</time>
   <energy>
    <i name="e_fr_energy">     -9.84458045 </i>
    <i name="e_wo_entrp">     -9.61614565 </i>
    <i name="e_0_energy">     -9.73036305 </i>
   </energy>
  </scstep>
  <scstep>
   <time name="dav">    0.14    0.14</time>
   <time name="total">    0.51    0.51</time>
   <energy>
    <i name="e_fr_energy">     -9.72590127 </i>
    <i name="e_wo_entrp">     -9.39173294 </i>
    <i name="e_0_energy">     -9.55881710 </i>
   </energy>
  </scstep>
  <scstep>
   <time name="dav">    0.14    0.14</time>
   <time name="total">    0.50    0.50</time>
   <energy>
    <i name="e_fr_energy">     -9.81481231 </i>
    <i name="e_wo_entrp">     -9.58138666 </i>
    <i name="e_0_energy">     -9.69809949 </i>
   </energy>
  </scstep>
  <scstep>
   <time name="dav">    0.14    0.14</time>
   <time name="total">    0.50    0.50</time>
   <energy>
    <i name="e_fr_energy">     -9.66082666 </i>
    <i name="e_wo_entrp">     -9.33088441 </i>
    <i name="e_0_energy">     -9.49585553 </i>
   </energy>
  </scstep>
  <scstep>
   <time name="dav">    0.14    0.14</time>
   <time name="total">    0.51    0.51</time>
   <energy>
    <i name="e_fr_energy">     -9.67854515 </i>
    <i name="e_wo_entrp">     -9.36060950 </i>
    <i name="e_0_energy">     -9.51957733 </i>
   </energy>
  </scstep>
  <scstep>
   <time name="dav">    0.14    0.14</time>
   <time name="total">    0.52    0.52</time>
   <energy>
    <i name="e_fr_energy">     -9.66975486 </i>
    <i name="e_wo_entrp">     -9.34014222 </i>
    <i name="e_0_energy">     -9.50494854 </i>
   </energy>
  </scstep>
  <scstep>
   <time name="dav">    0.14    0.14</time>
   <time name="total">    0.51    0.53</time>
   <energy>
    <i name="e_fr_energy">     -9.67614516 </i>
    <i name="e_wo_entrp">     -9.35311702 </i>
    <i name="e_0_energy">     -9.51463109 </i>
   </energy>
  </scstep>
  <scstep>
   <time name="dav">    0.14    0.14</time>
   <time name="total">    0.51    0.51</time>
   <energy>
    <i name="e_fr_energy">     -9.67591754 </i>
    <i name="e_wo_entrp">     -9.35415817 </i>
    <i name="e_0_energy">     -9.51503786 </i>
   </energy>
  </scstep>
  <scstep>
   <time name="dav">    0.14    0.14</time>
   <time name="total">    0.51    0.51</time>
   <energy>
    <i name="e_fr_energy">     -9.66357778 </i>
    <i name="e_wo_entrp">     -9.31524551 </i>
    <i name="e_0_energy">     -9.48941164 </i>
   </energy>
  </scstep>
  <scstep>
   <time name="dav">    0.14    0.14</time>
   <time name="total">    0.51    0.51</time>
   <energy>
    <i name="e_fr_energy">     -9.66814680 </i>
    <i name="e_wo_entrp">     -9.32536432 </i>
    <i name="e_0_energy">     -9.49675556 </i>
   </energy>
  </scstep>
  <scstep>
   <time name="dav">    0.14    0.14</time>
   <time name="total">    0.51    0.51</time>
   <energy>
    <i name="e_fr_energy">     -9.66657671 </i>
    <i name="e_wo_entrp">     -9.31723855 </i>
    <i name="e_0_energy">     -9.49190763 </i>
   </energy>
  </scstep>
  <scstep>
   <time name="dav">    0.15    0.15</time>
   <time name="total">    0.53    0.53</time>
   <energy>
    <i name="e_fr_energy">     -9.66733091 </i>
    <i name="e_wo_entrp">     -9.31961572 </i>
    <i name="e_0_energy">     -9.49347332 </i>
   </energy>
  </scstep>
  <scstep>
   <time name="dav">    0.14    0.14</time>
   <time name="total">    0.51    0.51</time>
   <energy>
    <i name="e_fr_energy">     -9.66704495 </i>
    <i name="e_wo_entrp">     -9.31650316 </i>
    <i name="e_0_energy">     -9.49177406 </i>
   </energy>
  </scstep>
  <scstep>
   <time name="dav">    0.15    0.15</time>
   <time name="total">    0.53    0.53</time>
   <energy>
    <i name="e_fr_energy">     -9.66722176 </i>
    <i name="e_wo_entrp">     -9.31691063 </i>
    <i name="e_0_energy">     -9.49206620 </i>
   </energy>
  </scstep>
  <scstep>
   <time name="dav">    0.15    0.15</time>
   <time name="total">    0.53    0.53</time>
   <energy>
    <i name="e_fr_energy">     -9.66732215 </i>
    <i name="e_wo_entrp">     -9.31498244 </i>
    <i name="e_0_energy">     -9.49115229 </i>
   </energy>
  </scstep>
  <scstep>
   <time name="dav">    0.14    0.14</time>
   <time name="total">    0.52    0.52</time>
   <energy>
    <i name="e_fr_energy">     -9.66735725 </i>
    <i name="e_wo_entrp">     -9.31569052 </i>
    <i name="e_0_energy">     -9.49152388 </i>
   </energy>
  </scstep>
  <scstep>
   <time name="dav">    0.15    0.17</time>
   <time name="total">    0.54    0.55</time>
   <energy>
    <i name="e_fr_energy">     -9.66736592 </i>
    <i name="e_wo_entrp">     -9.31565725 </i>
    <i name="e_0_energy">     -9.49151159 </i>
   </energy>
  </scstep>
  <scstep>
   <time name="dav">    0.14    0.14</time>
   <time name="total">    0.52    0.52</time>
   <energy>
    <i name="e_fr_energy">     -9.66739842 </i>
    <i name="e_wo_entrp">     -9.31489926 </i>
    <i name="e_0_energy">     -9.49114884 </i>
   </energy>
  </scstep>
  <scstep>
   <time name="dav">    0.14    0.14</time>
   <time name="total">    0.53    0.53</time>
   <energy>
    <i name="e_fr_energy">     -9.66737870 </i>
    <i name="e_wo_entrp">     -9.31523670 </i>
    <i name="e_0_energy">     -9.49130770 </i>
   </energy>
  </scstep>
  <scstep>
   <time name="dav">    0.14    0.14</time>
   <time name="total">    0.53    0.53</time>
   <energy>
    <i name="e_fr_energy">     -9.66737627 </i>
    <i name="e_wo_entrp">     -9.31538273 </i>
    <i name="e_0_energy">     -9.49137950 </i>
   </energy>
  </scstep>
  <scstep>
   <time name="dav">    0.15    0.15</time>
   <time name="total">    0.54    0.54</time>
   <energy>
    <i name="e_fr_energy">     -9.66737733 </i>
    <i name="e_wo_entrp">     -9.31539526 </i>
    <i name="e_0_energy">     -9.49138630 </i>
   </energy>
  </scstep>
  <scstep>
   <time name="dav">    0.14    0.14</time>
   <time name="total">    0.52    0.52</time>
   <energy>
    <i name="e_fr_energy">     -9.66738042 </i>
    <i name="e_wo_entrp">     -9.31529409 </i>
    <i name="e_0_energy">     -9.49133725 </i>
   </energy>
  </scstep>
  <scstep>
   <time name="dav">    0.15    0.15</time>
   <time name="total">    0.54    0.54</time>
   <energy>
    <i name="e_fr_energy">     -9.66737657 </i>
    <i name="e_wo_entrp">     -9.31544456 </i>
    <i name="e_0_energy">     -9.49141057 </i>
   </energy>
  </scstep>
  <scstep>
   <time name="dav">    0.11    0.11</time>
   <time name="total">    0.49    0.49</time>
   <energy>
    <i name="e_fr_energy">     -9.66737541 </i>
    <i name="e_wo_entrp">     -9.31560183 </i>
    <i name="e_0_energy">     -9.49148862 </i>
   </energy>
  </scstep>
  <scstep>
   <time name="dav">    0.15    0.15</time>
   <time name="total">    0.44    0.44</time>
   <energy>
    <i name="alphaZ">      0.12374184 </i>
    <i name="ewald">    269.60691640 </i>
    <i name="hartreedc">   -292.89651672 </i>
    <i name="XCdc">     23.86479140 </i>
    <i name="pawpsdc">    196.73614187 </i>
    <i name="pawaedc">   -197.05362842 </i>
    <i name="eentropy">     -0.35174142 </i>
    <i name="bandstr">   -109.26328408 </i>
    <i name="atom">     99.56620307 </i>
    <i name="e_fr_energy">     -9.66737605 </i>
    <i name="e_wo_entrp">     -9.31563463 </i>
    <i name="e_0_energy">     -9.49150534 </i>
   </energy>
  </scstep>
  <structure>
   <crystal>
    <varray name="basis" >
     <v>      15.00000000       0.00000000       0.00000000 </v>
     <v>       0.00000000      15.00000000       0.00000000 </v>
     <v>       0.00000000       0.00000000       5.60000000 </v>
    </varray>
    <i name="volume">   1260.00000000 </i>
    <varray name="rec_basis" >
     <v>       0.06666667      -0.00000000       0.00000000 </v>
     <v>       0.00000000       0.06666667       0.00000000 </v>
     <v>      -0.00000000      -0.00000000       0.17857143 </v>
    </varray>
   </crystal>
   <varray name="positions" >
    <v>       0.00000000       0.00000000       0.00000000 </v>
    <v>       0.00000000       0.00000000       0.12500000 </v>
    <v>       0.00000000       0.00000000       0.25000000 </v>
    <v>       0.00000000       0.00000000       0.37500000 </v>
    <v>       0.00000000       0.00000000       0.50000000 </v>
    <v>       0.00000000       0.00000000       0.62500000 </v>
    <v>       0.00000000       0.00000000       0.75000000 </v>
    <v>       0.00000000       0.00000000       0.87500000 </v>
   </varray>
  </structure>
  <varray name="forces" >
   <v>      -0.00000000      -0.00000000       0.00000000 </v>
   <v>       0.00000000       0.00000000       0.00000000 </v>
   <v>       0.00000000      -0.00000000      -0.00000000 </v>
   <v>      -0.00000000       0.00000000      -0.00000000 </v>
   <v>       0.00000000      -0.00000000      -0.00000000 </v>
   <v>      -0.00000000       0.00000000       0.00000000 </v>
   <v>       0.00000000       0.00000000      -0.00000000 </v>
   <v>       0.00000000       0.00000000       0.00000000 </v>
  </varray>
  <varray name="stress" >
   <v>      -2.16020922      -0.00000000      -0.00000000 </v>
   <v>      -0.00000000      -2.16020922      -0.00000000 </v>
   <v>      -0.00000000      -0.00000000      68.75479019 </v>
  </varray>
  <energy>
   <i name="e_fr_energy">     -9.66737605 </i>
   <i name="e_wo_entrp">     -9.49150534 </i>
   <i name="e_0_energy">     -0.35174142 </i>
  </energy>
  <time name="totalsc">   18.73   18.78</time>
  <eigenvalues>
   <array>
    <dimension dim="1">band</dimension>
    <dimension dim="2">kpoint</dimension>
    <dimension dim="3">spin</dimension>
    <field>eigene</field>
    <field>occ</field>
    <set>
     <set comment="spin 1">
      <set comment="kpoint 1">
       <r>  -20.8154    1.0000 </r>
       <r>  -16.0526    1.0000 </r>
       <r>  -16.0526    1.0000 </r>
       <r>   -1.7334    0.3172 </r>
       <r>   -1.7334    0.3172 </r>
       <r>   -1.6726    0.1826 </r>
       <r>   -1.6726    0.1826 </r>
       <r>   -1.3280    0.0004 </r>
       <r>    0.0495    0.0000 </r>
       <r>    0.0952    0.0000 </r>
       <r>    0.3701    0.0000 </r>
       <r>    0.4076    0.0000 </r>
      </set>
     </set>
     <set comment="spin 2">
      <set comment="kpoint 1">
       <r>  -20.8154    1.0000 </r>
       <r>  -16.0526    1.0000 </r>
       <r>  -16.0526    1.0000 </r>
       <r>   -1.7334    0.3172 </r>
       <r>   -1.7334    0.3172 </r>
       <r>   -1.6726    0.1826 </r>
       <r>   -1.6726    0.1826 </r>
       <r>   -1.3280    0.0004 </r>
       <r>    0.0496    0.0000 </r>
       <r>    0.0955    0.0000 </r>
       <r>    0.3702    0.0000 </r>
       <r>    0.4077    0.0000 </r>
      </set>
     </set>
    </set>
   </array>
  </eigenvalues>
  <separator name="orbital magnetization" >
   <v name="MAGDIPOLOUT">      0.00000000      0.00000000      0.00000000</v>
  </separator>
  <dos>
   <i name="efermi">     -1.80064520 </i>
   <total>
    <array>
     <dimension dim="1">gridpoints</dimension>
     <dimension dim="2">spin</dimension>
     <field>energy</field>
     <field>total</field>
     <field>integrated</field>
     <set>
      <set comment="spin 1">
       <r>   -22.8154     0.0000     0.0000 </r>
       <r>   -22.7313     0.0000     0.0000 </r>
       <r>   -22.6472     0.0000     0.0000 </r>
       <r>   -22.5631     0.0000     0.0000 </r>
       <r>   -22.4791     0.0000     0.0000 </r>
       <r>   -22.3950     0.0000     0.0000 </r>
       <r>   -22.3109     0.0000     0.0000 </r>
       <r>   -22.2268     0.0000     0.0000 </r>
       <r>   -22.1428     0.0000     0.0000 </r>
       <r>   -22.0587     0.0000     0.0000 </r>
       <r>   -21.9746     0.0000     0.0000 </r>
       <r>   -21.8905     0.0000     0.0000 </r>
       <r>   -21.8064     0.0000     0.0000 </r>
       <r>   -21.7224     0.0000     0.0000 </r>
       <r>   -21.6383     0.0000     0.0000 </r>
       <r>   -21.5542     0.0000     0.0000 </r>
       <r>   -21.4701     0.0000     0.0000 </r>
       <r>   -21.3861     0.0006     0.0001 </r>
       <r>   -21.3020     0.0062     0.0006 </r>
       <r>   -21.2179     0.0457     0.0044 </r>
       <r>   -21.1338     0.2368     0.0243 </r>
       <r>   -21.0498     0.8696     0.0974 </r>
       <r>   -20.9657     2.2646     0.2878 </r>
       <r>   -20.8816     4.1830     0.6395 </r>
       <r>   -20.7975     5.4815     1.1004 </r>
       <r>   -20.7134     5.0964     1.5289 </r>
       <r>   -20.6294     3.3619     1.8116 </r>
       <r>   -20.5453     1.5733     1.9438 </r>
       <r>   -20.4612     0.5221     1.9877 </r>
       <r>   -20.3771     0.1228     1.9981 </r>
       <r>   -20.2931     0.0205     1.9998 </r>
       <r>   -20.2090     0.0024     2.0000 </r>
       <r>   -20.1249     0.0002     2.0000 </r>
       <r>   -20.0408     0.0000     2.0000 </r>
       <r>   -19.9568     0.0000     2.0000 </r>
       <r>   -19.8727     0.0000     2.0000 </r>
       <r>   -19.7886     0.0000     2.0000 </r>
       <r>   -19.7045     0.0000     2.0000 </r>
       <r>   -19.6204     0.0000     2.0000 </r>
       <r>   -19.5364     0.0000     2.0000 </r>
       <r>   -19.4523     0.0000     2.0000 </r>
       <r>   -19.3682     0.0000     2.0000 </r>
       <r>   -19.2841     0.0000     2.0000 </r>
       <r>   -19.2001     0.0000     2.0000 </r>
       <r>   -19.1160     0.0000     2.0000 </r>
       <r>   -19.0319     0.0000     2.0000 </r>
       <r>   -18.9478     0.0000     2.0000 </r>
       <r>   -18.8638     0.0000     2.0000 </r>
       <r>   -18.7797     0.0000     2.0000 </r>
       <r>   -18.6956     0.0000     2.0000 </r>
       <r>   -18.6115     0.0000     2.0000 </r>
       <r>   -18.5274     0.0000     2.0000 </r>
       <r>   -18.4434     0.0000     2.0000 </r>
       <r>   -18.3593     0.0000     2.0000 </r>
       <r>   -18.2752     0.0000     2.0000 </r>
       <r>   -18.1911     0.0000     2.0000 </r>
       <r>   -18.1071     0.0000     2.0000 </r>
       <r>   -18.0230     0.0000     2.0000 </r>
       <r>   -17.9389     0.0000     2.0000 </r>
       <r>   -17.8548     0.0000     2.0000 </r>
       <r>   -17.7708     0.0000     2.0000 </r>
       <r>   -17.6867     0.0000     2.0000 </r>
       <r>   -17.6026     0.0000     2.0000 </r>
       <r>   -17.5185     0.0000     2.0000 </r>
       <r>   -17.4345     0.0000     2.0000 </r>
       <r>   -17.3504     0.0000     2.0000 </r>
       <r>   -17.2663     0.0000     2.0000 </r>
       <r>   -17.1822     0.0000     2.0000 </r>
       <r>   -17.0981     0.0000     2.0000 </r>
       <r>   -17.0141     0.0000     2.0000 </r>
       <r>   -16.9300     0.0000     2.0000 </r>
       <r>   -16.8459     0.0000     2.0000 </r>
       <r>   -16.7618     0.0000     2.0000 </r>
       <r>   -16.6778     0.0002     2.0000 </r>
       <r>   -16.5937     0.0029     2.0003 </r>
       <r>   -16.5096     0.0262     2.0025 </r>
       <r>   -16.4255     0.1698     2.0167 </r>
       <r>   -16.3415     0.7791     2.0822 </r>
       <r>   -16.2574     2.5347     2.2954 </r>
       <r>   -16.1733     5.8478     2.7870 </r>
       <r>   -16.0892     9.5701     3.5916 </r>
       <r>   -16.0051    11.1118     4.5259 </r>
       <r>   -15.9211     9.1541     5.2955 </r>
       <r>   -15.8370     5.3503     5.7454 </r>
       <r>   -15.7529     2.2182     5.9319 </r>
       <r>   -15.6688     0.6521     5.9867 </r>
       <r>   -15.5848     0.1359     5.9981 </r>
       <r>   -15.5007     0.0201     5.9998 </r>
       <r>   -15.4166     0.0021     6.0000 </r>
       <r>   -15.3325     0.0002     6.0000 </r>
       <r>   -15.2485     0.0000     6.0000 </r>
       <r>   -15.1644     0.0000     6.0000 </r>
       <r>   -15.0803     0.0000     6.0000 </r>
       <r>   -14.9962     0.0000     6.0000 </r>
       <r>   -14.9121     0.0000     6.0000 </r>
       <r>   -14.8281     0.0000     6.0000 </r>
       <r>   -14.7440     0.0000     6.0000 </r>
       <r>   -14.6599     0.0000     6.0000 </r>
       <r>   -14.5758     0.0000     6.0000 </r>
       <r>   -14.4918     0.0000     6.0000 </r>
       <r>   -14.4077     0.0000     6.0000 </r>
       <r>   -14.3236     0.0000     6.0000 </r>
       <r>   -14.2395     0.0000     6.0000 </r>
       <r>   -14.1555     0.0000     6.0000 </r>
       <r>   -14.0714     0.0000     6.0000 </r>
       <r>   -13.9873     0.0000     6.0000 </r>
       <r>   -13.9032     0.0000     6.0000 </r>
       <r>   -13.8192     0.0000     6.0000 </r>
       <r>   -13.7351     0.0000     6.0000 </r>
       <r>   -13.6510     0.0000     6.0000 </r>
       <r>   -13.5669     0.0000     6.0000 </r>
       <r>   -13.4828     0.0000     6.0000 </r>
       <r>   -13.3988     0.0000     6.0000 </r>
       <r>   -13.3147     0.0000     6.0000 </r>
       <r>   -13.2306     0.0000     6.0000 </r>
       <r>   -13.1465     0.0000     6.0000 </r>
       <r>   -13.0625     0.0000     6.0000 </r>
       <r>   -12.9784     0.0000     6.0000 </r>
       <r>   -12.8943     0.0000     6.0000 </r>
       <r>   -12.8102     0.0000     6.0000 </r>
       <r>   -12.7262     0.0000     6.0000 </r>
       <r>   -12.6421     0.0000     6.0000 </r>
       <r>   -12.5580     0.0000     6.0000 </r>
       <r>   -12.4739     0.0000     6.0000 </r>
       <r>   -12.3898     0.0000     6.0000 </r>
       <r>   -12.3058     0.0000     6.0000 </r>
       <r>   -12.2217     0.0000     6.0000 </r>
       <r>   -12.1376     0.0000     6.0000 </r>
       <r>   -12.0535     0.0000     6.0000 </r>
       <r>   -11.9695     0.0000     6.0000 </r>
       <r>   -11.8854     0.0000     6.0000 </r>
       <r>   -11.8013     0.0000     6.0000 </r>
       <r>   -11.7172     0.0000     6.0000 </r>
       <r>   -11.6332     0.0000     6.0000 </r>
       <r>   -11.5491     0.0000     6.0000 </r>
       <r>   -11.4650     0.0000     6.0000 </r>
       <r>   -11.3809     0.0000     6.0000 </r>
       <r>   -11.2968     0.0000     6.0000 </r>
       <r>   -11.2128     0.0000     6.0000 </r>
       <r>   -11.1287     0.0000     6.0000 </r>
       <r>   -11.0446     0.0000     6.0000 </r>
       <r>   -10.9605     0.0000     6.0000 </r>
       <r>   -10.8765     0.0000     6.0000 </r>
       <r>   -10.7924     0.0000     6.0000 </r>
       <r>   -10.7083     0.0000     6.0000 </r>
       <r>   -10.6242     0.0000     6.0000 </r>
       <r>   -10.5402     0.0000     6.0000 </r>
       <r>   -10.4561     0.0000     6.0000 </r>
       <r>   -10.3720     0.0000     6.0000 </r>
       <r>   -10.2879     0.0000     6.0000 </r>
       <r>   -10.2038     0.0000     6.0000 </r>
       <r>   -10.1198     0.0000     6.0000 </r>
       <r>   -10.0357     0.0000     6.0000 </r>
       <r>    -9.9516     0.0000     6.0000 </r>
       <r>    -9.8675     0.0000     6.0000 </r>
       <r>    -9.7835     0.0000     6.0000 </r>
       <r>    -9.6994     0.0000     6.0000 </r>
       <r>    -9.6153     0.0000     6.0000 </r>
       <r>    -9.5312     0.0000     6.0000 </r>
       <r>    -9.4472     0.0000     6.0000 </r>
       <r>    -9.3631     0.0000     6.0000 </r>
       <r>    -9.2790     0.0000     6.0000 </r>
       <r>    -9.1949     0.0000     6.0000 </r>
       <r>    -9.1109     0.0000     6.0000 </r>
       <r>    -9.0268     0.0000     6.0000 </r>
       <r>    -8.9427     0.0000     6.0000 </r>
       <r>    -8.8586     0.0000     6.0000 </r>
       <r>    -8.7745     0.0000     6.0000 </r>
       <r>    -8.6905     0.0000     6.0000 </r>
       <r>    -8.6064     0.0000     6.0000 </r>
       <r>    -8.5223     0.0000     6.0000 </r>
       <r>    -8.4382     0.0000     6.0000 </r>
       <r>    -8.3542     0.0000     6.0000 </r>
       <r>    -8.2701     0.0000     6.0000 </r>
       <r>    -8.1860     0.0000     6.0000 </r>
       <r>    -8.1019     0.0000     6.0000 </r>
       <r>    -8.0179     0.0000     6.0000 </r>
       <r>    -7.9338     0.0000     6.0000 </r>
       <r>    -7.8497     0.0000     6.0000 </r>
       <r>    -7.7656     0.0000     6.0000 </r>
       <r>    -7.6815     0.0000     6.0000 </r>
       <r>    -7.5975     0.0000     6.0000 </r>
       <r>    -7.5134     0.0000     6.0000 </r>
       <r>    -7.4293     0.0000     6.0000 </r>
       <r>    -7.3452     0.0000     6.0000 </r>
       <r>    -7.2612     0.0000     6.0000 </r>
       <r>    -7.1771     0.0000     6.0000 </r>
       <r>    -7.0930     0.0000     6.0000 </r>
       <r>    -7.0089     0.0000     6.0000 </r>
       <r>    -6.9249     0.0000     6.0000 </r>
       <r>    -6.8408     0.0000     6.0000 </r>
       <r>    -6.7567     0.0000     6.0000 </r>
       <r>    -6.6726     0.0000     6.0000 </r>
       <r>    -6.5885     0.0000     6.0000 </r>
       <r>    -6.5045     0.0000     6.0000 </r>
       <r>    -6.4204     0.0000     6.0000 </r>
       <r>    -6.3363     0.0000     6.0000 </r>
       <r>    -6.2522     0.0000     6.0000 </r>
       <r>    -6.1682     0.0000     6.0000 </r>
       <r>    -6.0841     0.0000     6.0000 </r>
       <r>    -6.0000     0.0000     6.0000 </r>
       <r>    -5.9159     0.0000     6.0000 </r>
       <r>    -5.8319     0.0000     6.0000 </r>
       <r>    -5.7478     0.0000     6.0000 </r>
       <r>    -5.6637     0.0000     6.0000 </r>
       <r>    -5.5796     0.0000     6.0000 </r>
       <r>    -5.4955     0.0000     6.0000 </r>
       <r>    -5.4115     0.0000     6.0000 </r>
       <r>    -5.3274     0.0000     6.0000 </r>
       <r>    -5.2433     0.0000     6.0000 </r>
       <r>    -5.1592     0.0000     6.0000 </r>
       <r>    -5.0752     0.0000     6.0000 </r>
       <r>    -4.9911     0.0000     6.0000 </r>
       <r>    -4.9070     0.0000     6.0000 </r>
       <r>    -4.8229     0.0000     6.0000 </r>
       <r>    -4.7389     0.0000     6.0000 </r>
       <r>    -4.6548     0.0000     6.0000 </r>
       <r>    -4.5707     0.0000     6.0000 </r>
       <r>    -4.4866     0.0000     6.0000 </r>
       <r>    -4.4026     0.0000     6.0000 </r>
       <r>    -4.3185     0.0000     6.0000 </r>
       <r>    -4.2344     0.0000     6.0000 </r>
       <r>    -4.1503     0.0000     6.0000 </r>
       <r>    -4.0662     0.0000     6.0000 </r>
       <r>    -3.9822     0.0000     6.0000 </r>
       <r>    -3.8981     0.0000     6.0000 </r>
       <r>    -3.8140     0.0000     6.0000 </r>
       <r>    -3.7299     0.0000     6.0000 </r>
       <r>    -3.6459     0.0000     6.0000 </r>
       <r>    -3.5618     0.0000     6.0000 </r>
       <r>    -3.4777     0.0000     6.0000 </r>
       <r>    -3.3936     0.0000     6.0000 </r>
       <r>    -3.3096     0.0000     6.0000 </r>
       <r>    -3.2255     0.0000     6.0000 </r>
       <r>    -3.1414     0.0000     6.0000 </r>
       <r>    -3.0573     0.0000     6.0000 </r>
       <r>    -2.9732     0.0000     6.0000 </r>
       <r>    -2.8892     0.0000     6.0000 </r>
       <r>    -2.8051     0.0000     6.0000 </r>
       <r>    -2.7210     0.0000     6.0000 </r>
       <r>    -2.6369     0.0000     6.0000 </r>
       <r>    -2.5529     0.0000     6.0000 </r>
       <r>    -2.4688     0.0000     6.0000 </r>
       <r>    -2.3847     0.0001     6.0000 </r>
       <r>    -2.3006     0.0015     6.0001 </r>
       <r>    -2.2166     0.0163     6.0015 </r>
       <r>    -2.1325     0.1229     6.0118 </r>
       <r>    -2.0484     0.6630     6.0676 </r>
       <r>    -1.9643     2.5647     6.2832 </r>
       <r>    -1.8802     7.1247     6.8822 </r>
       <r>    -1.7962    14.2402     8.0795 </r>
       <r>    -1.7121    20.5340     9.8059 </r>
       <r>    -1.6280    21.5304    11.6161 </r>
       <r>    -1.5439    16.9350    13.0400 </r>
       <r>    -1.4599    11.1776    13.9798 </r>
       <r>    -1.3758     7.8614    14.6407 </r>
       <r>    -1.2917     6.4696    15.1847 </r>
       <r>    -1.2076     4.9731    15.6028 </r>
       <r>    -1.1236     2.9574    15.8514 </r>
       <r>    -1.0395     1.2750    15.9586 </r>
       <r>    -0.9554     0.3918    15.9916 </r>
       <r>    -0.8713     0.0855    15.9988 </r>
       <r>    -0.7872     0.0132    15.9999 </r>
       <r>    -0.7032     0.0014    16.0000 </r>
       <r>    -0.6191     0.0001    16.0000 </r>
       <r>    -0.5350     0.0005    16.0000 </r>
       <r>    -0.4509     0.0056    16.0005 </r>
       <r>    -0.3669     0.0453    16.0043 </r>
       <r>    -0.2828     0.2616    16.0263 </r>
       <r>    -0.1987     1.0785    16.1170 </r>
       <r>    -0.1146     3.1817    16.3845 </r>
       <r>    -0.0306     6.7470    16.9518 </r>
       <r>     0.0535    10.4262    17.8284 </r>
       <r>     0.1376    12.2552    18.8587 </r>
       <r>     0.2217    12.2409    19.8879 </r>
       <r>     0.3057    12.2029    20.9139 </r>
       <r>     0.3898    12.4127    21.9575 </r>
       <r>     0.4739    11.0637    22.8877 </r>
       <r>     0.5580     7.6031    23.5270 </r>
       <r>     0.6421     3.8188    23.8480 </r>
       <r>     0.7261     1.3777    23.9639 </r>
       <r>     0.8102     0.3551    23.9937 </r>
       <r>     0.8943     0.0652    23.9992 </r>
       <r>     0.9784     0.0085    23.9999 </r>
       <r>     1.0624     0.0008    24.0000 </r>
       <r>     1.1465     0.0001    24.0000 </r>
       <r>     1.2306     0.0000    24.0000 </r>
       <r>     1.3147     0.0000    24.0000 </r>
       <r>     1.3987     0.0000    24.0000 </r>
       <r>     1.4828     0.0000    24.0000 </r>
       <r>     1.5669     0.0000    24.0000 </r>
       <r>     1.6510     0.0000    24.0000 </r>
       <r>     1.7351     0.0000    24.0000 </r>
       <r>     1.8191     0.0000    24.0000 </r>
       <r>     1.9032     0.0000    24.0000 </r>
       <r>     1.9873     0.0000    24.0000 </r>
       <r>     2.0714     0.0000    24.0000 </r>
       <r>     2.1554     0.0000    24.0000 </r>
       <r>     2.2395     0.0000    24.0000 </r>
       <r>     2.3236     0.0000    24.0000 </r>
       <r>     2.4077     0.0000    24.0000 </r>
      </set>
      <set comment="spin 2">
       <r>   -22.8154     0.0000     0.0000 </r>
       <r>   -22.7313     0.0000     0.0000 </r>
       <r>   -22.6472     0.0000     0.0000 </r>
       <r>   -22.5631     0.0000     0.0000 </r>
       <r>   -22.4791     0.0000     0.0000 </r>
       <r>   -22.3950     0.0000     0.0000 </r>
       <r>   -22.3109     0.0000     0.0000 </r>
       <r>   -22.2268     0.0000     0.0000 </r>
       <r>   -22.1428     0.0000     0.0000 </r>
       <r>   -22.0587     0.0000     0.0000 </r>
       <r>   -21.9746     0.0000     0.0000 </r>
       <r>   -21.8905     0.0000     0.0000 </r>
       <r>   -21.8064     0.0000     0.0000 </r>
       <r>   -21.7224     0.0000     0.0000 </r>
       <r>   -21.6383     0.0000     0.0000 </r>
       <r>   -21.5542     0.0000     0.0000 </r>
       <r>   -21.4701     0.0000     0.0000 </r>
       <r>   -21.3861     0.0006     0.0001 </r>
       <r>   -21.3020     0.0062     0.0006 </r>
       <r>   -21.2179     0.0457     0.0044 </r>
       <r>   -21.1338     0.2368     0.0243 </r>
       <r>   -21.0498     0.8696     0.0974 </r>
       <r>   -20.9657     2.2646     0.2878 </r>
       <r>   -20.8816     4.1830     0.6395 </r>
       <r>   -20.7975     5.4814     1.1004 </r>
       <r>   -20.7134     5.0965     1.5289 </r>
       <r>   -20.6294     3.3620     1.8116 </r>
       <r>   -20.5453     1.5733     1.9438 </r>
       <r>   -20.4612     0.5221     1.9877 </r>
       <r>   -20.3771     0.1229     1.9981 </r>
       <r>   -20.2931     0.0205     1.9998 </r>
       <r>   -20.2090     0.0024     2.0000 </r>
       <r>   -20.1249     0.0002     2.0000 </r>
       <r>   -20.0408     0.0000     2.0000 </r>
       <r>   -19.9568     0.0000     2.0000 </r>
       <r>   -19.8727     0.0000     2.0000 </r>
       <r>   -19.7886     0.0000     2.0000 </r>
       <r>   -19.7045     0.0000     2.0000 </r>
       <r>   -19.6204     0.0000     2.0000 </r>
       <r>   -19.5364     0.0000     2.0000 </r>
       <r>   -19.4523     0.0000     2.0000 </r>
       <r>   -19.3682     0.0000     2.0000 </r>
       <r>   -19.2841     0.0000     2.0000 </r>
       <r>   -19.2001     0.0000     2.0000 </r>
       <r>   -19.1160     0.0000     2.0000 </r>
       <r>   -19.0319     0.0000     2.0000 </r>
       <r>   -18.9478     0.0000     2.0000 </r>
       <r>   -18.8638     0.0000     2.0000 </r>
       <r>   -18.7797     0.0000     2.0000 </r>
       <r>   -18.6956     0.0000     2.0000 </r>
       <r>   -18.6115     0.0000     2.0000 </r>
       <r>   -18.5274     0.0000     2.0000 </r>
       <r>   -18.4434     0.0000     2.0000 </r>
       <r>   -18.3593     0.0000     2.0000 </r>
       <r>   -18.2752     0.0000     2.0000 </r>
       <r>   -18.1911     0.0000     2.0000 </r>
       <r>   -18.1071     0.0000     2.0000 </r>
       <r>   -18.0230     0.0000     2.0000 </r>
       <r>   -17.9389     0.0000     2.0000 </r>
       <r>   -17.8548     0.0000     2.0000 </r>
       <r>   -17.7708     0.0000     2.0000 </r>
       <r>   -17.6867     0.0000     2.0000 </r>
       <r>   -17.6026     0.0000     2.0000 </r>
       <r>   -17.5185     0.0000     2.0000 </r>
       <r>   -17.4345     0.0000     2.0000 </r>
       <r>   -17.3504     0.0000     2.0000 </r>
       <r>   -17.2663     0.0000     2.0000 </r>
       <r>   -17.1822     0.0000     2.0000 </r>
       <r>   -17.0981     0.0000     2.0000 </r>
       <r>   -17.0141     0.0000     2.0000 </r>
       <r>   -16.9300     0.0000     2.0000 </r>
       <r>   -16.8459     0.0000     2.0000 </r>
       <r>   -16.7618     0.0000     2.0000 </r>
       <r>   -16.6778     0.0002     2.0000 </r>
       <r>   -16.5937     0.0029     2.0003 </r>
       <r>   -16.5096     0.0262     2.0025 </r>
       <r>   -16.4255     0.1698     2.0167 </r>
       <r>   -16.3415     0.7791     2.0822 </r>
       <r>   -16.2574     2.5347     2.2954 </r>
       <r>   -16.1733     5.8477     2.7870 </r>
       <r>   -16.0892     9.5701     3.5916 </r>
       <r>   -16.0051    11.1118     4.5259 </r>
       <r>   -15.9211     9.1541     5.2955 </r>
       <r>   -15.8370     5.3504     5.7454 </r>
       <r>   -15.7529     2.2182     5.9319 </r>
       <r>   -15.6688     0.6521     5.9867 </r>
       <r>   -15.5848     0.1359     5.9981 </r>
       <r>   -15.5007     0.0201     5.9998 </r>
       <r>   -15.4166     0.0021     6.0000 </r>
       <r>   -15.3325     0.0002     6.0000 </r>
       <r>   -15.2485     0.0000     6.0000 </r>
       <r>   -15.1644     0.0000     6.0000 </r>
       <r>   -15.0803     0.0000     6.0000 </r>
       <r>   -14.9962     0.0000     6.0000 </r>
       <r>   -14.9121     0.0000     6.0000 </r>
       <r>   -14.8281     0.0000     6.0000 </r>
       <r>   -14.7440     0.0000     6.0000 </r>
       <r>   -14.6599     0.0000     6.0000 </r>
       <r>   -14.5758     0.0000     6.0000 </r>
       <r>   -14.4918     0.0000     6.0000 </r>
       <r>   -14.4077     0.0000     6.0000 </r>
       <r>   -14.3236     0.0000     6.0000 </r>
       <r>   -14.2395     0.0000     6.0000 </r>
       <r>   -14.1555     0.0000     6.0000 </r>
       <r>   -14.0714     0.0000     6.0000 </r>
       <r>   -13.9873     0.0000     6.0000 </r>
       <r>   -13.9032     0.0000     6.0000 </r>
       <r>   -13.8192     0.0000     6.0000 </r>
       <r>   -13.7351     0.0000     6.0000 </r>
       <r>   -13.6510     0.0000     6.0000 </r>
       <r>   -13.5669     0.0000     6.0000 </r>
       <r>   -13.4828     0.0000     6.0000 </r>
       <r>   -13.3988     0.0000     6.0000 </r>
       <r>   -13.3147     0.0000     6.0000 </r>
       <r>   -13.2306     0.0000     6.0000 </r>
       <r>   -13.1465     0.0000     6.0000 </r>
       <r>   -13.0625     0.0000     6.0000 </r>
       <r>   -12.9784     0.0000     6.0000 </r>
       <r>   -12.8943     0.0000     6.0000 </r>
       <r>   -12.8102     0.0000     6.0000 </r>
       <r>   -12.7262     0.0000     6.0000 </r>
       <r>   -12.6421     0.0000     6.0000 </r>
       <r>   -12.5580     0.0000     6.0000 </r>
       <r>   -12.4739     0.0000     6.0000 </r>
       <r>   -12.3898     0.0000     6.0000 </r>
       <r>   -12.3058     0.0000     6.0000 </r>
       <r>   -12.2217     0.0000     6.0000 </r>
       <r>   -12.1376     0.0000     6.0000 </r>
       <r>   -12.0535     0.0000     6.0000 </r>
       <r>   -11.9695     0.0000     6.0000 </r>
       <r>   -11.8854     0.0000     6.0000 </r>
       <r>   -11.8013     0.0000     6.0000 </r>
       <r>   -11.7172     0.0000     6.0000 </r>
       <r>   -11.6332     0.0000     6.0000 </r>
       <r>   -11.5491     0.0000     6.0000 </r>
       <r>   -11.4650     0.0000     6.0000 </r>
       <r>   -11.3809     0.0000     6.0000 </r>
       <r>   -11.2968     0.0000     6.0000 </r>
       <r>   -11.2128     0.0000     6.0000 </r>
       <r>   -11.1287     0.0000     6.0000 </r>
       <r>   -11.0446     0.0000     6.0000 </r>
       <r>   -10.9605     0.0000     6.0000 </r>
       <r>   -10.8765     0.0000     6.0000 </r>
       <r>   -10.7924     0.0000     6.0000 </r>
       <r>   -10.7083     0.0000     6.0000 </r>
       <r>   -10.6242     0.0000     6.0000 </r>
       <r>   -10.5402     0.0000     6.0000 </r>
       <r>   -10.4561     0.0000     6.0000 </r>
       <r>   -10.3720     0.0000     6.0000 </r>
       <r>   -10.2879     0.0000     6.0000 </r>
       <r>   -10.2038     0.0000     6.0000 </r>
       <r>   -10.1198     0.0000     6.0000 </r>
       <r>   -10.0357     0.0000     6.0000 </r>
       <r>    -9.9516     0.0000     6.0000 </r>
       <r>    -9.8675     0.0000     6.0000 </r>
       <r>    -9.7835     0.0000     6.0000 </r>
       <r>    -9.6994     0.0000     6.0000 </r>
       <r>    -9.6153     0.0000     6.0000 </r>
       <r>    -9.5312     0.0000     6.0000 </r>
       <r>    -9.4472     0.0000     6.0000 </r>
       <r>    -9.3631     0.0000     6.0000 </r>
       <r>    -9.2790     0.0000     6.0000 </r>
       <r>    -9.1949     0.0000     6.0000 </r>
       <r>    -9.1109     0.0000     6.0000 </r>
       <r>    -9.0268     0.0000     6.0000 </r>
       <r>    -8.9427     0.0000     6.0000 </r>
       <r>    -8.8586     0.0000     6.0000 </r>
       <r>    -8.7745     0.0000     6.0000 </r>
       <r>    -8.6905     0.0000     6.0000 </r>
       <r>    -8.6064     0.0000     6.0000 </r>
       <r>    -8.5223     0.0000     6.0000 </r>
       <r>    -8.4382     0.0000     6.0000 </r>
       <r>    -8.3542     0.0000     6.0000 </r>
       <r>    -8.2701     0.0000     6.0000 </r>
       <r>    -8.1860     0.0000     6.0000 </r>
       <r>    -8.1019     0.0000     6.0000 </r>
       <r>    -8.0179     0.0000     6.0000 </r>
       <r>    -7.9338     0.0000     6.0000 </r>
       <r>    -7.8497     0.0000     6.0000 </r>
       <r>    -7.7656     0.0000     6.0000 </r>
       <r>    -7.6815     0.0000     6.0000 </r>
       <r>    -7.5975     0.0000     6.0000 </r>
       <r>    -7.5134     0.0000     6.0000 </r>
       <r>    -7.4293     0.0000     6.0000 </r>
       <r>    -7.3452     0.0000     6.0000 </r>
       <r>    -7.2612     0.0000     6.0000 </r>
       <r>    -7.1771     0.0000     6.0000 </r>
       <r>    -7.0930     0.0000     6.0000 </r>
       <r>    -7.0089     0.0000     6.0000 </r>
       <r>    -6.9249     0.0000     6.0000 </r>
       <r>    -6.8408     0.0000     6.0000 </r>
       <r>    -6.7567     0.0000     6.0000 </r>
       <r>    -6.6726     0.0000     6.0000 </r>
       <r>    -6.5885     0.0000     6.0000 </r>
       <r>    -6.5045     0.0000     6.0000 </r>
       <r>    -6.4204     0.0000     6.0000 </r>
       <r>    -6.3363     0.0000     6.0000 </r>
       <r>    -6.2522     0.0000     6.0000 </r>
       <r>    -6.1682     0.0000     6.0000 </r>
       <r>    -6.0841     0.0000     6.0000 </r>
       <r>    -6.0000     0.0000     6.0000 </r>
       <r>    -5.9159     0.0000     6.0000 </r>
       <r>    -5.8319     0.0000     6.0000 </r>
       <r>    -5.7478     0.0000     6.0000 </r>
       <r>    -5.6637     0.0000     6.0000 </r>
       <r>    -5.5796     0.0000     6.0000 </r>
       <r>    -5.4955     0.0000     6.0000 </r>
       <r>    -5.4115     0.0000     6.0000 </r>
       <r>    -5.3274     0.0000     6.0000 </r>
       <r>    -5.2433     0.0000     6.0000 </r>
       <r>    -5.1592     0.0000     6.0000 </r>
       <r>    -5.0752     0.0000     6.0000 </r>
       <r>    -4.9911     0.0000     6.0000 </r>
       <r>    -4.9070     0.0000     6.0000 </r>
       <r>    -4.8229     0.0000     6.0000 </r>
       <r>    -4.7389     0.0000     6.0000 </r>
       <r>    -4.6548     0.0000     6.0000 </r>
       <r>    -4.5707     0.0000     6.0000 </r>
       <r>    -4.4866     0.0000     6.0000 </r>
       <r>    -4.4026     0.0000     6.0000 </r>
       <r>    -4.3185     0.0000     6.0000 </r>
       <r>    -4.2344     0.0000     6.0000 </r>
       <r>    -4.1503     0.0000     6.0000 </r>
       <r>    -4.0662     0.0000     6.0000 </r>
       <r>    -3.9822     0.0000     6.0000 </r>
       <r>    -3.8981     0.0000     6.0000 </r>
       <r>    -3.8140     0.0000     6.0000 </r>
       <r>    -3.7299     0.0000     6.0000 </r>
       <r>    -3.6459     0.0000     6.0000 </r>
       <r>    -3.5618     0.0000     6.0000 </r>
       <r>    -3.4777     0.0000     6.0000 </r>
       <r>    -3.3936     0.0000     6.0000 </r>
       <r>    -3.3096     0.0000     6.0000 </r>
       <r>    -3.2255     0.0000     6.0000 </r>
       <r>    -3.1414     0.0000     6.0000 </r>
       <r>    -3.0573     0.0000     6.0000 </r>
       <r>    -2.9732     0.0000     6.0000 </r>
       <r>    -2.8892     0.0000     6.0000 </r>
       <r>    -2.8051     0.0000     6.0000 </r>
       <r>    -2.7210     0.0000     6.0000 </r>
       <r>    -2.6369     0.0000     6.0000 </r>
       <r>    -2.5529     0.0000     6.0000 </r>
       <r>    -2.4688     0.0000     6.0000 </r>
       <r>    -2.3847     0.0001     6.0000 </r>
       <r>    -2.3006     0.0015     6.0001 </r>
       <r>    -2.2166     0.0163     6.0015 </r>
       <r>    -2.1325     0.1229     6.0118 </r>
       <r>    -2.0484     0.6630     6.0676 </r>
       <r>    -1.9643     2.5647     6.2832 </r>
       <r>    -1.8802     7.1247     6.8822 </r>
       <r>    -1.7962    14.2402     8.0795 </r>
       <r>    -1.7121    20.5340     9.8059 </r>
       <r>    -1.6280    21.5304    11.6161 </r>
       <r>    -1.5439    16.9349    13.0400 </r>
       <r>    -1.4599    11.1776    13.9798 </r>
       <r>    -1.3758     7.8613    14.6407 </r>
       <r>    -1.2917     6.4696    15.1846 </r>
       <r>    -1.2076     4.9732    15.6028 </r>
       <r>    -1.1236     2.9575    15.8514 </r>
       <r>    -1.0395     1.2750    15.9586 </r>
       <r>    -0.9554     0.3918    15.9916 </r>
       <r>    -0.8713     0.0855    15.9988 </r>
       <r>    -0.7872     0.0132    15.9999 </r>
       <r>    -0.7032     0.0014    16.0000 </r>
       <r>    -0.6191     0.0001    16.0000 </r>
       <r>    -0.5350     0.0005    16.0000 </r>
       <r>    -0.4509     0.0056    16.0005 </r>
       <r>    -0.3669     0.0452    16.0043 </r>
       <r>    -0.2828     0.2610    16.0263 </r>
       <r>    -0.1987     1.0764    16.1168 </r>
       <r>    -0.1146     3.1766    16.3838 </r>
       <r>    -0.0306     6.7393    16.9505 </r>
       <r>     0.0535    10.4199    17.8265 </r>
       <r>     0.1376    12.2548    18.8569 </r>
       <r>     0.2217    12.2455    19.8864 </r>
       <r>     0.3057    12.2079    20.9128 </r>
       <r>     0.3898    12.4158    21.9567 </r>
       <r>     0.4739    11.0663    22.8871 </r>
       <r>     0.5580     7.6060    23.5266 </r>
       <r>     0.6421     3.8212    23.8479 </r>
       <r>     0.7261     1.3790    23.9638 </r>
       <r>     0.8102     0.3555    23.9937 </r>
       <r>     0.8943     0.0653    23.9992 </r>
       <r>     0.9784     0.0085    23.9999 </r>
       <r>     1.0624     0.0008    24.0000 </r>
       <r>     1.1465     0.0001    24.0000 </r>
       <r>     1.2306     0.0000    24.0000 </r>
       <r>     1.3147     0.0000    24.0000 </r>
       <r>     1.3987     0.0000    24.0000 </r>
       <r>     1.4828     0.0000    24.0000 </r>
       <r>     1.5669     0.0000    24.0000 </r>
       <r>     1.6510     0.0000    24.0000 </r>
       <r>     1.7351     0.0000    24.0000 </r>
       <r>     1.8191     0.0000    24.0000 </r>
       <r>     1.9032     0.0000    24.0000 </r>
       <r>     1.9873     0.0000    24.0000 </r>
       <r>     2.0714     0.0000    24.0000 </r>
       <r>     2.1554     0.0000    24.0000 </r>
       <r>     2.2395     0.0000    24.0000 </r>
       <r>     2.3236     0.0000    24.0000 </r>
       <r>     2.4077     0.0000    24.0000 </r>
      </set>
     </set>
    </array>
   </total>
  </dos>
 </calculation>
 <structure name="finalpos" >
  <crystal>
   <varray name="basis" >
    <v>      15.00000000       0.00000000       0.00000000 </v>
    <v>       0.00000000      15.00000000       0.00000000 </v>
    <v>       0.00000000       0.00000000       5.60000000 </v>
   </varray>
   <i name="volume">   1260.00000000 </i>
   <varray name="rec_basis" >
    <v>       0.06666667      -0.00000000       0.00000000 </v>
    <v>       0.00000000       0.06666667       0.00000000 </v>
    <v>      -0.00000000      -0.00000000       0.17857143 </v>
   </varray>
  </crystal>
  <varray name="positions" >
   <v>       0.00000000       0.00000000       0.00000000 </v>
   <v>       0.00000000       0.00000000       0.12500000 </v>
   <v>       0.00000000       0.00000000       0.25000000 </v>
   <v>       0.00000000       0.00000000       0.37500000 </v>
   <v>       0.00000000       0.00000000       0.50000000 </v>
   <v>       0.00000000       0.00000000       0.62500000 </v>
   <v>       0.00000000       0.00000000       0.75000000 </v>
   <v>       0.00000000       0.00000000       0.87500000 </v>
  </varray>
 </structure>
</modeling>
