   8   8   0   0
  0.3375000E+03  0.1500000E-08  0.1500000E-08  0.1200000E-08  0.5000000E-15
  1.000000000000000E-004
  CAR 
 unknown system                          
      2.60342129    -12.22740399  301     -6.28577388      1.00000000
    -12.227  0.0000E+00  0.0000E+00  0.0000E+00  0.0000E+00
    -12.178  0.0000E+00  0.0000E+00  0.0000E+00  0.0000E+00
    -12.129  0.0000E+00  0.0000E+00  0.0000E+00  0.0000E+00
    -12.079  0.0000E+00  0.0000E+00  0.0000E+00  0.0000E+00
    -12.030  0.0000E+00  0.0000E+00  0.0000E+00  0.0000E+00
    -11.980  0.0000E+00  0.0000E+00  0.0000E+00  0.0000E+00
    -11.931  0.0000E+00  0.0000E+00  0.0000E+00  0.0000E+00
    -11.881  0.0000E+00  0.0000E+00  0.0000E+00  0.0000E+00
    -11.832  0.0000E+00  0.0000E+00  0.0000E+00  0.0000E+00
    -11.782  0.0000E+00  0.0000E+00  0.0000E+00  0.0000E+00
    -11.733  0.0000E+00  0.0000E+00  0.0000E+00  0.0000E+00
    -11.684  0.0000E+00  0.0000E+00  0.0000E+00  0.0000E+00
    -11.634  0.0000E+00  0.0000E+00  0.0000E+00  0.0000E+00
    -11.585  0.0000E+00  0.0000E+00  0.0000E+00  0.0000E+00
    -11.535  0.0000E+00  0.0000E+00  0.0000E+00  0.0000E+00
    -11.486  0.0000E+00  0.0000E+00  0.0000E+00  0.0000E+00
    -11.436  0.0000E+00  0.0000E+00  0.0000E+00  0.0000E+00
    -11.387  0.4492E-14  0.4492E-14  0.2220E-15  0.2220E-15
    -11.338  0.7860E-13  0.7860E-13  0.4108E-14  0.4108E-14
    -11.288  0.1204E-11  0.1204E-11  0.6362E-13  0.6362E-13
    -11.239  0.1616E-10  0.1616E-10  0.8626E-12  0.8626E-12
    -11.189  0.1923E-09  0.1923E-09  0.1037E-10  0.1037E-10
    -11.140  0.2028E-08  0.2028E-08  0.1106E-09  0.1106E-09
    -11.090  0.1894E-07  0.1894E-07  0.1047E-08  0.1047E-08
    -11.041  0.1566E-06  0.1566E-06  0.8791E-08  0.8791E-08
    -10.992  0.1148E-05  0.1148E-05  0.6554E-07  0.6554E-07
    -10.942  0.7453E-05  0.7453E-05  0.4340E-06  0.4340E-06
    -10.893  0.4286E-04  0.4286E-04  0.2553E-05  0.2553E-05
    -10.843  0.2184E-03  0.2184E-03  0.1335E-04  0.1335E-04
    -10.794  0.9859E-03  0.9859E-03  0.6209E-04  0.6209E-04
    -10.744  0.3943E-02  0.3943E-02  0.2570E-03  0.2570E-03
    -10.695  0.1397E-01  0.1397E-01  0.9478E-03  0.9478E-03
    -10.645  0.4387E-01  0.4387E-01  0.3116E-02  0.3116E-02
    -10.596  0.1220E+00  0.1220E+00  0.9148E-02  0.9148E-02
    -10.547  0.3007E+00  0.3007E+00  0.2401E-01  0.2401E-01
    -10.497  0.6567E+00  0.6567E+00  0.5648E-01  0.5648E-01
    -10.448  0.1271E+01  0.1271E+01  0.1193E+00  0.1193E+00
    -10.398  0.2178E+01  0.2178E+01  0.2270E+00  0.2270E+00
    -10.349  0.3309E+01  0.3309E+01  0.3905E+00  0.3905E+00
    -10.299  0.4453E+01  0.4453E+01  0.6107E+00  0.6107E+00
    -10.250  0.5311E+01  0.5311E+01  0.8733E+00  0.8733E+00
    -10.201  0.5613E+01  0.5613E+01  0.1151E+01  0.1151E+01
    -10.151  0.5255E+01  0.5255E+01  0.1411E+01  0.1411E+01
    -10.102  0.4360E+01  0.4360E+01  0.1626E+01  0.1626E+01
    -10.052  0.3205E+01  0.3205E+01  0.1785E+01  0.1785E+01
    -10.003  0.2088E+01  0.2088E+01  0.1888E+01  0.1888E+01
     -9.953  0.1205E+01  0.1205E+01  0.1947E+01  0.1947E+01
     -9.904  0.6164E+00  0.6164E+00  0.1978E+01  0.1978E+01
     -9.854  0.2796E+00  0.2796E+00  0.1992E+01  0.1992E+01
     -9.805  0.1137E+00  0.1137E+00  0.1997E+01  0.1997E+01
     -9.756  0.4636E-01  0.4636E-01  0.2000E+01  0.2000E+01
     -9.706  0.3593E-01  0.3593E-01  0.2001E+01  0.2001E+01
     -9.657  0.7818E-01  0.7818E-01  0.2005E+01  0.2005E+01
     -9.607  0.2123E+00  0.2123E+00  0.2016E+01  0.2016E+01
     -9.558  0.5307E+00  0.5307E+00  0.2042E+01  0.2042E+01
     -9.508  0.1179E+01  0.1179E+01  0.2100E+01  0.2100E+01
     -9.459  0.2323E+01  0.2323E+01  0.2215E+01  0.2215E+01
     -9.410  0.4054E+01  0.4054E+01  0.2415E+01  0.2415E+01
     -9.360  0.6269E+01  0.6269E+01  0.2725E+01  0.2725E+01
     -9.311  0.8590E+01  0.8590E+01  0.3150E+01  0.3150E+01
     -9.261  0.1043E+02  0.1043E+02  0.3666E+01  0.3666E+01
     -9.212  0.1122E+02  0.1122E+02  0.4220E+01  0.4220E+01
     -9.162  0.1069E+02  0.1069E+02  0.4749E+01  0.4749E+01
     -9.113  0.9033E+01  0.9033E+01  0.5195E+01  0.5195E+01
     -9.063  0.6760E+01  0.6760E+01  0.5530E+01  0.5530E+01
     -9.014  0.4483E+01  0.4483E+01  0.5751E+01  0.5751E+01
     -8.965  0.2634E+01  0.2634E+01  0.5881E+01  0.5881E+01
     -8.915  0.1371E+01  0.1371E+01  0.5949E+01  0.5949E+01
     -8.866  0.6325E+00  0.6325E+00  0.5981E+01  0.5981E+01
     -8.816  0.2585E+00  0.2585E+00  0.5993E+01  0.5993E+01
     -8.767  0.9362E-01  0.9362E-01  0.5998E+01  0.5998E+01
     -8.717  0.3004E-01  0.3004E-01  0.5999E+01  0.5999E+01
     -8.668  0.8539E-02  0.8539E-02  0.6000E+01  0.6000E+01
     -8.619  0.2151E-02  0.2151E-02  0.6000E+01  0.6000E+01
     -8.569  0.4799E-03  0.4799E-03  0.6000E+01  0.6000E+01
     -8.520  0.9487E-04  0.9487E-04  0.6000E+01  0.6000E+01
     -8.470  0.1662E-04  0.1662E-04  0.6000E+01  0.6000E+01
     -8.421  0.2578E-05  0.2578E-05  0.6000E+01  0.6000E+01
     -8.371  0.3544E-06  0.3544E-06  0.6000E+01  0.6000E+01
     -8.322  0.4315E-07  0.4315E-07  0.6000E+01  0.6000E+01
     -8.273  0.4655E-08  0.4655E-08  0.6000E+01  0.6000E+01
     -8.223  0.4448E-09  0.4448E-09  0.6000E+01  0.6000E+01
     -8.174  0.3765E-10  0.3765E-10  0.6000E+01  0.6000E+01
     -8.124  0.2821E-11  0.2821E-11  0.6000E+01  0.6000E+01
     -8.075  0.1797E-12  0.1797E-12  0.6000E+01  0.6000E+01
     -8.025  0.1797E-13  0.1797E-13  0.6000E+01  0.6000E+01
     -7.976  0.0000E+00  0.0000E+00  0.6000E+01  0.6000E+01
     -7.926  0.0000E+00  0.0000E+00  0.6000E+01  0.6000E+01
     -7.877  0.0000E+00  0.0000E+00  0.6000E+01  0.6000E+01
     -7.828  0.0000E+00  0.0000E+00  0.6000E+01  0.6000E+01
     -7.778  0.0000E+00  0.0000E+00  0.6000E+01  0.6000E+01
     -7.729  0.0000E+00  0.0000E+00  0.6000E+01  0.6000E+01
     -7.679  0.0000E+00  0.0000E+00  0.6000E+01  0.6000E+01
     -7.630  0.0000E+00  0.0000E+00  0.6000E+01  0.6000E+01
     -7.580  0.0000E+00  0.0000E+00  0.6000E+01  0.6000E+01
     -7.531  0.0000E+00  0.0000E+00  0.6000E+01  0.6000E+01
     -7.482  0.0000E+00  0.0000E+00  0.6000E+01  0.6000E+01
     -7.432  0.2246E-13  0.2246E-13  0.6000E+01  0.6000E+01
     -7.383  0.3324E-12  0.3324E-12  0.6000E+01  0.6000E+01
     -7.333  0.4885E-11  0.4885E-11  0.6000E+01  0.6000E+01
     -7.284  0.6355E-10  0.6355E-10  0.6000E+01  0.6000E+01
     -7.234  0.7321E-09  0.7321E-09  0.6000E+01  0.6000E+01
     -7.185  0.7471E-08  0.7471E-08  0.6000E+01  0.6000E+01
     -7.135  0.6754E-07  0.6754E-07  0.6000E+01  0.6000E+01
     -7.086  0.5408E-06  0.5408E-06  0.6000E+01  0.6000E+01
     -7.037  0.3837E-05  0.3837E-05  0.6000E+01  0.6000E+01
     -6.987  0.2411E-04  0.2411E-04  0.6000E+01  0.6000E+01
     -6.938  0.1342E-03  0.1342E-03  0.6000E+01  0.6000E+01
     -6.888  0.6622E-03  0.6622E-03  0.6000E+01  0.6000E+01
     -6.839  0.2894E-02  0.2894E-02  0.6000E+01  0.6000E+01
     -6.789  0.1120E-01  0.1120E-01  0.6001E+01  0.6001E+01
     -6.740  0.3843E-01  0.3843E-01  0.6003E+01  0.6003E+01
     -6.691  0.1168E+00  0.1168E+00  0.6008E+01  0.6008E+01
     -6.641  0.3145E+00  0.3145E+00  0.6024E+01  0.6024E+01
     -6.592  0.7504E+00  0.7504E+00  0.6061E+01  0.6061E+01
     -6.542  0.1586E+01  0.1586E+01  0.6139E+01  0.6139E+01
     -6.493  0.2971E+01  0.2971E+01  0.6286E+01  0.6286E+01
     -6.443  0.4931E+01  0.4931E+01  0.6530E+01  0.6530E+01
     -6.394  0.7252E+01  0.7252E+01  0.6889E+01  0.6889E+01
     -6.345  0.9449E+01  0.9449E+01  0.7356E+01  0.7356E+01
     -6.295  0.1091E+02  0.1091E+02  0.7895E+01  0.7895E+01
     -6.246  0.1116E+02  0.1116E+02  0.8447E+01  0.8447E+01
     -6.196  0.1012E+02  0.1012E+02  0.8947E+01  0.8947E+01
     -6.147  0.8126E+01  0.8126E+01  0.9349E+01  0.9349E+01
     -6.097  0.5783E+01  0.5783E+01  0.9635E+01  0.9635E+01
     -6.048  0.3647E+01  0.3647E+01  0.9815E+01  0.9815E+01
     -5.998  0.2038E+01  0.2038E+01  0.9916E+01  0.9916E+01
     -5.949  0.1009E+01  0.1009E+01  0.9965E+01  0.9965E+01
     -5.900  0.4425E+00  0.4425E+00  0.9987E+01  0.9987E+01
     -5.850  0.1720E+00  0.1720E+00  0.9996E+01  0.9996E+01
     -5.801  0.5922E-01  0.5922E-01  0.9999E+01  0.9999E+01
     -5.751  0.1807E-01  0.1807E-01  0.1000E+02  0.1000E+02
     -5.702  0.4885E-02  0.4885E-02  0.1000E+02  0.1000E+02
     -5.652  0.1170E-02  0.1170E-02  0.1000E+02  0.1000E+02
     -5.603  0.2482E-03  0.2482E-03  0.1000E+02  0.1000E+02
     -5.554  0.4666E-04  0.4666E-04  0.1000E+02  0.1000E+02
     -5.504  0.7771E-05  0.7771E-05  0.1000E+02  0.1000E+02
     -5.455  0.1147E-05  0.1147E-05  0.1000E+02  0.1000E+02
     -5.405  0.1499E-06  0.1499E-06  0.1000E+02  0.1000E+02
     -5.356  0.1735E-07  0.1735E-07  0.1000E+02  0.1000E+02
     -5.306  0.1780E-08  0.1780E-08  0.1000E+02  0.1000E+02
     -5.257  0.1617E-09  0.1617E-09  0.1000E+02  0.1000E+02
     -5.207  0.1302E-10  0.1302E-10  0.1000E+02  0.1000E+02
     -5.158  0.9253E-12  0.9253E-12  0.1000E+02  0.1000E+02
     -5.109  0.6288E-13  0.6288E-13  0.1000E+02  0.1000E+02
     -5.059  0.0000E+00  0.0000E+00  0.1000E+02  0.1000E+02
     -5.010  0.0000E+00  0.0000E+00  0.1000E+02  0.1000E+02
     -4.960  0.0000E+00  0.0000E+00  0.1000E+02  0.1000E+02
     -4.911  0.0000E+00  0.0000E+00  0.1000E+02  0.1000E+02
     -4.861  0.0000E+00  0.0000E+00  0.1000E+02  0.1000E+02
     -4.812  0.0000E+00  0.0000E+00  0.1000E+02  0.1000E+02
     -4.763  0.0000E+00  0.0000E+00  0.1000E+02  0.1000E+02
     -4.713  0.0000E+00  0.0000E+00  0.1000E+02  0.1000E+02
     -4.664  0.0000E+00  0.0000E+00  0.1000E+02  0.1000E+02
     -4.614  0.0000E+00  0.0000E+00  0.1000E+02  0.1000E+02
     -4.565  0.0000E+00  0.0000E+00  0.1000E+02  0.1000E+02
     -4.515  0.0000E+00  0.0000E+00  0.1000E+02  0.1000E+02
     -4.466  0.0000E+00  0.0000E+00  0.1000E+02  0.1000E+02
     -4.417  0.0000E+00  0.0000E+00  0.1000E+02  0.1000E+02
     -4.367  0.0000E+00  0.0000E+00  0.1000E+02  0.1000E+02
     -4.318  0.0000E+00  0.0000E+00  0.1000E+02  0.1000E+02
     -4.268  0.0000E+00  0.0000E+00  0.1000E+02  0.1000E+02
     -4.219  0.0000E+00  0.0000E+00  0.1000E+02  0.1000E+02
     -4.169  0.0000E+00  0.0000E+00  0.1000E+02  0.1000E+02
     -4.120  0.0000E+00  0.0000E+00  0.1000E+02  0.1000E+02
     -4.070  0.0000E+00  0.0000E+00  0.1000E+02  0.1000E+02
     -4.021  0.0000E+00  0.0000E+00  0.1000E+02  0.1000E+02
     -3.972  0.0000E+00  0.0000E+00  0.1000E+02  0.1000E+02
     -3.922  0.0000E+00  0.0000E+00  0.1000E+02  0.1000E+02
     -3.873  0.0000E+00  0.0000E+00  0.1000E+02  0.1000E+02
     -3.823  0.0000E+00  0.0000E+00  0.1000E+02  0.1000E+02
     -3.774  0.0000E+00  0.0000E+00  0.1000E+02  0.1000E+02
     -3.724  0.0000E+00  0.0000E+00  0.1000E+02  0.1000E+02
     -3.675  0.0000E+00  0.0000E+00  0.1000E+02  0.1000E+02
     -3.626  0.0000E+00  0.0000E+00  0.1000E+02  0.1000E+02
     -3.576  0.0000E+00  0.0000E+00  0.1000E+02  0.1000E+02
     -3.527  0.0000E+00  0.0000E+00  0.1000E+02  0.1000E+02
     -3.477  0.0000E+00  0.0000E+00  0.1000E+02  0.1000E+02
     -3.428  0.0000E+00  0.0000E+00  0.1000E+02  0.1000E+02
     -3.378  0.0000E+00  0.0000E+00  0.1000E+02  0.1000E+02
     -3.329  0.0000E+00  0.0000E+00  0.1000E+02  0.1000E+02
     -3.279  0.0000E+00  0.0000E+00  0.1000E+02  0.1000E+02
     -3.230  0.0000E+00  0.0000E+00  0.1000E+02  0.1000E+02
     -3.181  0.0000E+00  0.0000E+00  0.1000E+02  0.1000E+02
     -3.131  0.0000E+00  0.0000E+00  0.1000E+02  0.1000E+02
     -3.082  0.0000E+00  0.0000E+00  0.1000E+02  0.1000E+02
     -3.032  0.0000E+00  0.0000E+00  0.1000E+02  0.1000E+02
     -2.983  0.0000E+00  0.0000E+00  0.1000E+02  0.1000E+02
     -2.933  0.0000E+00  0.0000E+00  0.1000E+02  0.1000E+02
     -2.884  0.0000E+00  0.0000E+00  0.1000E+02  0.1000E+02
     -2.835  0.0000E+00  0.0000E+00  0.1000E+02  0.1000E+02
     -2.785  0.1797E-13  0.1797E-13  0.1000E+02  0.1000E+02
     -2.736  0.2605E-12  0.2605E-12  0.1000E+02  0.1000E+02
     -2.686  0.3894E-11  0.3894E-11  0.1000E+02  0.1000E+02
     -2.637  0.5118E-10  0.5118E-10  0.1000E+02  0.1000E+02
     -2.587  0.5958E-09  0.5958E-09  0.1000E+02  0.1000E+02
     -2.538  0.6144E-08  0.6144E-08  0.1000E+02  0.1000E+02
     -2.488  0.5612E-07  0.5612E-07  0.1000E+02  0.1000E+02
     -2.439  0.4541E-06  0.4541E-06  0.1000E+02  0.1000E+02
     -2.390  0.3256E-05  0.3256E-05  0.1000E+02  0.1000E+02
     -2.340  0.2067E-04  0.2067E-04  0.1000E+02  0.1000E+02
     -2.291  0.1163E-03  0.1163E-03  0.1000E+02  0.1000E+02
     -2.241  0.5798E-03  0.5798E-03  0.1000E+02  0.1000E+02
     -2.192  0.2560E-02  0.2560E-02  0.1000E+02  0.1000E+02
     -2.142  0.1002E-01  0.1002E-01  0.1000E+02  0.1000E+02
     -2.093  0.3472E-01  0.3472E-01  0.1000E+02  0.1000E+02
     -2.044  0.1066E+00  0.1066E+00  0.1001E+02  0.1001E+02
     -1.994  0.2901E+00  0.2901E+00  0.1002E+02  0.1002E+02
     -1.945  0.6995E+00  0.6995E+00  0.1006E+02  0.1006E+02
     -1.895  0.1494E+01  0.1494E+01  0.1013E+02  0.1013E+02
     -1.846  0.2828E+01  0.2828E+01  0.1027E+02  0.1027E+02
     -1.796  0.4743E+01  0.4743E+01  0.1050E+02  0.1050E+02
     -1.747  0.7048E+01  0.7048E+01  0.1085E+02  0.1085E+02
     -1.698  0.9280E+01  0.9280E+01  0.1131E+02  0.1131E+02
     -1.648  0.1083E+02  0.1083E+02  0.1185E+02  0.1185E+02
     -1.599  0.1119E+02  0.1119E+02  0.1240E+02  0.1240E+02
     -1.549  0.1025E+02  0.1025E+02  0.1291E+02  0.1291E+02
     -1.500  0.8320E+01  0.8320E+01  0.1332E+02  0.1332E+02
     -1.450  0.5984E+01  0.5984E+01  0.1361E+02  0.1361E+02
     -1.401  0.3813E+01  0.3813E+01  0.1380E+02  0.1380E+02
     -1.351  0.2153E+01  0.2153E+01  0.1391E+02  0.1391E+02
     -1.302  0.1077E+01  0.1077E+01  0.1396E+02  0.1396E+02
     -1.253  0.4774E+00  0.4774E+00  0.1399E+02  0.1399E+02
     -1.203  0.1875E+00  0.1875E+00  0.1400E+02  0.1400E+02
     -1.154  0.6524E-01  0.6524E-01  0.1400E+02  0.1400E+02
     -1.104  0.2011E-01  0.2011E-01  0.1400E+02  0.1400E+02
     -1.055  0.5494E-02  0.5494E-02  0.1400E+02  0.1400E+02
     -1.005  0.1330E-02  0.1330E-02  0.1400E+02  0.1400E+02
     -0.956  0.2859E-03  0.2859E-03  0.1400E+02  0.1400E+02
     -0.907  0.6009E-04  0.6008E-04  0.1400E+02  0.1400E+02
     -0.857  0.4587E-04  0.4581E-04  0.1400E+02  0.1400E+02
     -0.808  0.2034E-03  0.2031E-03  0.1400E+02  0.1400E+02
     -0.758  0.9849E-03  0.9836E-03  0.1400E+02  0.1400E+02
     -0.709  0.4258E-02  0.4253E-02  0.1400E+02  0.1400E+02
     -0.659  0.1633E-01  0.1631E-01  0.1400E+02  0.1400E+02
     -0.610  0.5558E-01  0.5553E-01  0.1400E+02  0.1400E+02
     -0.560  0.1679E+00  0.1677E+00  0.1401E+02  0.1401E+02
     -0.511  0.4499E+00  0.4496E+00  0.1403E+02  0.1403E+02
     -0.462  0.1070E+01  0.1070E+01  0.1409E+02  0.1409E+02
     -0.412  0.2260E+01  0.2259E+01  0.1420E+02  0.1420E+02
     -0.363  0.4239E+01  0.4238E+01  0.1441E+02  0.1441E+02
     -0.313  0.7059E+01  0.7057E+01  0.1476E+02  0.1476E+02
     -0.264  0.1044E+02  0.1044E+02  0.1527E+02  0.1527E+02
     -0.214  0.1372E+02  0.1372E+02  0.1595E+02  0.1595E+02
     -0.165  0.1601E+02  0.1601E+02  0.1674E+02  0.1674E+02
     -0.116  0.1661E+02  0.1661E+02  0.1756E+02  0.1756E+02
     -0.066  0.1530E+02  0.1531E+02  0.1832E+02  0.1832E+02
     -0.017  0.1253E+02  0.1254E+02  0.1894E+02  0.1894E+02
      0.033  0.9126E+01  0.9128E+01  0.1939E+02  0.1939E+02
      0.082  0.5911E+01  0.5912E+01  0.1968E+02  0.1968E+02
      0.132  0.3422E+01  0.3422E+01  0.1985E+02  0.1985E+02
      0.181  0.1820E+01  0.1820E+01  0.1994E+02  0.1994E+02
      0.230  0.1023E+01  0.1022E+01  0.1999E+02  0.1999E+02
      0.280  0.8985E+00  0.8968E+00  0.2004E+02  0.2004E+02
      0.329  0.1387E+01  0.1384E+01  0.2011E+02  0.2011E+02
      0.379  0.2512E+01  0.2507E+01  0.2023E+02  0.2023E+02
      0.428  0.4276E+01  0.4269E+01  0.2044E+02  0.2044E+02
      0.478  0.6517E+01  0.6508E+01  0.2076E+02  0.2076E+02
      0.527  0.8814E+01  0.8806E+01  0.2120E+02  0.2120E+02
      0.577  0.1057E+02  0.1056E+02  0.2172E+02  0.2172E+02
      0.626  0.1123E+02  0.1123E+02  0.2228E+02  0.2228E+02
      0.675  0.1057E+02  0.1057E+02  0.2280E+02  0.2280E+02
      0.725  0.8814E+01  0.8822E+01  0.2324E+02  0.2323E+02
      0.774  0.6514E+01  0.6523E+01  0.2356E+02  0.2356E+02
      0.824  0.4266E+01  0.4274E+01  0.2377E+02  0.2377E+02
      0.873  0.2476E+01  0.2481E+01  0.2389E+02  0.2389E+02
      0.923  0.1273E+01  0.1276E+01  0.2395E+02  0.2395E+02
      0.972  0.5799E+00  0.5817E+00  0.2398E+02  0.2398E+02
      1.021  0.2341E+00  0.2349E+00  0.2399E+02  0.2399E+02
      1.071  0.8372E-01  0.8407E-01  0.2400E+02  0.2400E+02
      1.120  0.2653E-01  0.2666E-01  0.2400E+02  0.2400E+02
      1.170  0.7449E-02  0.7488E-02  0.2400E+02  0.2400E+02
      1.219  0.1853E-02  0.1864E-02  0.2400E+02  0.2400E+02
      1.269  0.4084E-03  0.4110E-03  0.2400E+02  0.2400E+02
      1.318  0.7974E-04  0.8029E-04  0.2400E+02  0.2400E+02
      1.368  0.1379E-04  0.1390E-04  0.2400E+02  0.2400E+02
      1.417  0.2114E-05  0.2131E-05  0.2400E+02  0.2400E+02
      1.466  0.2870E-06  0.2895E-06  0.2400E+02  0.2400E+02
      1.516  0.3452E-07  0.3484E-07  0.2400E+02  0.2400E+02
      1.565  0.3678E-08  0.3715E-08  0.2400E+02  0.2400E+02
      1.615  0.3472E-09  0.3508E-09  0.2400E+02  0.2400E+02
      1.664  0.2902E-10  0.2935E-10  0.2400E+02  0.2400E+02
      1.714  0.2151E-11  0.2178E-11  0.2400E+02  0.2400E+02
      1.763  0.1392E-12  0.1392E-12  0.2400E+02  0.2400E+02
      1.812  0.8983E-14  0.8983E-14  0.2400E+02  0.2400E+02
      1.862  0.0000E+00  0.0000E+00  0.2400E+02  0.2400E+02
      1.911  0.0000E+00  0.0000E+00  0.2400E+02  0.2400E+02
      1.961  0.0000E+00  0.0000E+00  0.2400E+02  0.2400E+02
      2.010  0.0000E+00  0.0000E+00  0.2400E+02  0.2400E+02
      2.060  0.0000E+00  0.0000E+00  0.2400E+02  0.2400E+02
      2.109  0.0000E+00  0.0000E+00  0.2400E+02  0.2400E+02
      2.158  0.0000E+00  0.0000E+00  0.2400E+02  0.2400E+02
      2.208  0.0000E+00  0.0000E+00  0.2400E+02  0.2400E+02
      2.257  0.0000E+00  0.0000E+00  0.2400E+02  0.2400E+02
      2.307  0.0000E+00  0.0000E+00  0.2400E+02  0.2400E+02
      2.356  0.0000E+00  0.0000E+00  0.2400E+02  0.2400E+02
      2.406  0.0000E+00  0.0000E+00  0.2400E+02  0.2400E+02
      2.455  0.0000E+00  0.0000E+00  0.2400E+02  0.2400E+02
      2.505  0.0000E+00  0.0000E+00  0.2400E+02  0.2400E+02
      2.554  0.0000E+00  0.0000E+00  0.2400E+02  0.2400E+02
      2.603  0.0000E+00  0.0000E+00  0.2400E+02  0.2400E+02
