    8    8    1    2
  0.3375000E+03  0.1500000E-08  0.1500000E-08  0.1200000E-08  0.5000000E-15
  1.000000000000000E-004
  CAR 
 unknown system                          
      8      1     12
 
  0.0000000E+00  0.0000000E+00  0.0000000E+00  0.1000000E+01
    1      -10.227404    -10.227404   1.000000   1.000000
    2       -9.231386     -9.231386   1.000000   1.000000
    3       -9.231384     -9.231384   1.000000   1.000000
    4       -6.285783     -6.285783   0.500025   0.500025
    5       -6.285765     -6.285765   0.499975   0.499975
    6       -1.634517     -1.634517   0.000000   0.000000
    7       -1.634517     -1.634517   0.000000   0.000000
    8       -0.165063     -0.165007   0.000000   0.000000
    9       -0.165063     -0.165007   0.000000   0.000000
   10       -0.118569     -0.118616   0.000000   0.000000
   11        0.599666      0.599466   0.000000   0.000000
   12        0.602862      0.603421   0.000000   0.000000
