       N       E                     dE             d eps       ncg     rms          rms(c)
DAV:   1    -0.197587630425E+01   -0.19759E+01   -0.11551E+03    64   0.183E+02
DAV:   2    -0.158232970926E+02   -0.13847E+02   -0.13823E+02    60   0.510E+01
DAV:   3    -0.166671581825E+02   -0.84386E+00   -0.65881E+00    76   0.129E+01
DAV:   4    -0.166957910574E+02   -0.28633E-01   -0.26969E-01    64   0.139E+00
DAV:   5    -0.166960864335E+02   -0.29538E-03   -0.29537E-03    64   0.138E-01    0.158E+00
DAV:   6    -0.166966671481E+02   -0.58071E-03   -0.11091E-02    64   0.555E-01    0.995E-01
DAV:   7    -0.166906217496E+02    0.60454E-02   -0.39683E-02    48   0.102E+00    0.121E-01
DAV:   8    -0.166932416853E+02   -0.26199E-02   -0.13667E-03    48   0.177E-01    0.309E-02
DAV:   9    -0.166935727035E+02   -0.33102E-03   -0.15987E-04    56   0.543E-02    0.210E-02
DAV:  10    -0.166945432731E+02   -0.97057E-03   -0.12937E-04    48   0.473E-02    0.134E-02
DAV:  11    -0.166945237881E+02    0.19485E-04   -0.13629E-04    48   0.440E-02    0.750E-03
DAV:  12    -0.166957669653E+02   -0.12432E-02   -0.13137E-04    48   0.401E-02    0.430E-03
DAV:  13    -0.166961247148E+02   -0.35775E-03   -0.25164E-05    48   0.194E-02    0.312E-03
DAV:  14    -0.166964299463E+02   -0.30523E-03   -0.19213E-05    48   0.167E-02    0.144E-03
DAV:  15    -0.166965075848E+02   -0.77639E-04   -0.17901E-06    48   0.596E-03    0.799E-04
DAV:  16    -0.166965223748E+02   -0.14790E-04   -0.94319E-08    48   0.157E-03    0.550E-04
DAV:  17    -0.166965511260E+02   -0.28751E-04   -0.61277E-07    48   0.337E-03    0.128E-04
DAV:  18    -0.166965523546E+02   -0.12286E-05   -0.16393E-08    48   0.730E-04    0.846E-05
DAV:  19    -0.166965544894E+02   -0.21347E-05   -0.12691E-08    48   0.583E-04    0.496E-05
DAV:  20    -0.166965556300E+02   -0.11406E-05   -0.80519E-09    48   0.561E-04    0.240E-05
DAV:  21    -0.166965558671E+02   -0.23709E-06   -0.63291E-10    48   0.151E-04
   1 F= -.16696556E+02 E0= -.16583718E+02  d E =-.225676E+00  mag=     0.0000
