 vasp.5.4.4.18Apr17-6-g9f103f2a35 (build Aug 24 2024 05:40:03) complex          
  
 executed on           IFC22_IMPI date 2024.11.22  21:41:14
 running on    4 total cores
 distrk:  each k-point on    4 cores,    1 groups
 distr:  one band on NCORES_PER_BAND=   1 cores,    4 groups


--------------------------------------------------------------------------------------------------------


 INCAR:
 POTCAR:    PAW_PBE H 15Jun2001                   
 POTCAR:    PAW_PBE H 15Jun2001                   
   VRHFIN =H: ultrasoft test                                                    
   LEXCH  = PE                                                                  
   EATOM  =    12.4884 eV,    0.9179 Ry                                         
                                                                                
   TITEL  = PAW_PBE H 15Jun2001                                                 
   LULTRA =        F    use ultrasoft PP ?                                      
   IUNSCR =        0    unscreen: 0-lin 1-nonlin 2-no                           
   RPACOR =    0.000    partial core radius                                     
   POMASS =    1.000; ZVAL   =    1.000    mass and valenz                      
   RCORE  =    1.100    outmost cutoff radius                                   
   RWIGS  =    0.700; RWIGS  =    0.370    wigner-seitz radius (au A)           
   ENMAX  =  250.000; ENMIN  =  200.000 eV                                      
   RCLOC  =    0.701    cutoff for local pot                                    
   LCOR   =        T    correct aug charges                                     
   LPAW   =        T    paw PP                                                  
   EAUG   =  400.000                                                            
   RMAX   =    1.123    core radius for proj-oper                               
   RAUG   =    1.200    factor for augmentation sphere                          
   RDEP   =    1.112    radius for radial grids                                 
   RDEPT  =    0.926    core radius for aug-charge                              
                                                                                
   Atomic configuration                                                         
    2 entries                                                                   
     n  l   j            E        occ.                                          
     1  0  0.50        -6.4927   1.0000                                         
     2  1  0.50        -3.4015   0.0000                                         
   Description                                                                  
     l       E           TYP  RCUT    TYP  RCUT                                 
     0     -6.4927494     23  1.100                                             
     0      6.8029130     23  1.100                                             
     1     -4.0817478     23  1.100                                             
  local pseudopotential read in
  atomic valenz-charges read in
  non local Contribution for L=           0  read in
    real space projection operators read in
  non local Contribution for L=           0  read in
    real space projection operators read in
  non local Contribution for L=           1  read in
    real space projection operators read in
    PAW grid and wavefunctions read in
 
   number of l-projection  operators is LMAX  =           3
   number of lm-projection operators is LMMAX =           5
 
  PAW_PBE H 15Jun2001                   :
 energy of atom  1       EATOM=  -12.4884
 kinetic energy error for atom=    0.0426 (will be added to EATOM!!)
 
 
 POSCAR: H8                                      
  positions in direct lattice
  No initial velocities read in
 exchange correlation table for  LEXCH =        8
   RHO(1)=    0.500       N(1)  =     2000
   RHO(2)=  100.500       N(2)  =     4000
 


--------------------------------------------------------------------------------------------------------


 ion  position               nearest neighbor table
   1  0.000  0.000  0.000-
   2  0.000  0.000  0.125-
   3  0.000  0.000  0.250-
   4  0.000  0.000  0.375-
   5  0.000  0.000  0.500-
   6  0.000  0.000  0.625-
   7  0.000  0.000  0.750-
   8  0.000  0.000  0.875-
 
  LATTYP: Found a simple tetragonal cell.
 ALAT       =    15.0000000000
 C/A-ratio  =     0.8000000000
  
  Lattice vectors:
  
 A1 = (  15.0000000000,   0.0000000000,   0.0000000000)
 A2 = (   0.0000000000,  15.0000000000,   0.0000000000)
 A3 = (   0.0000000000,   0.0000000000,  12.0000000000)


Analysis of symmetry for initial positions (statically):
=====================================================================
 Subroutine PRICEL returns following result:
 
  LATTYP: Found a simple tetragonal cell.
 ALAT       =    15.0000000000
 C/A-ratio  =     0.1000000000
  
  Lattice vectors:
  
 A1 = (  15.0000000000,   0.0000000000,   0.0000000000)
 A2 = (   0.0000000000,  15.0000000000,   0.0000000000)
 A3 = (   0.0000000000,   0.0000000000,   1.5000000000)
 
   8 primitive cells build up your supercell.
 

 Routine SETGRP: Setting up the symmetry group for a 
 simple tetragonal supercell.


 Subroutine GETGRP returns: Found 16 space group operations
 (whereof 16 operations were pure point group operations)
 out of a pool of 16 trial point group operations.


The static configuration has the point symmetry D_4h.


Analysis of symmetry for dynamics (positions and initial velocities):
=====================================================================
 Subroutine PRICEL returns following result:
 
  LATTYP: Found a simple tetragonal cell.
 ALAT       =    15.0000000000
 C/A-ratio  =     0.1000000000
  
  Lattice vectors:
  
 A1 = (  15.0000000000,   0.0000000000,   0.0000000000)
 A2 = (   0.0000000000,  15.0000000000,   0.0000000000)
 A3 = (   0.0000000000,   0.0000000000,   1.5000000000)
 
   8 primitive cells build up your supercell.
 

 Routine SETGRP: Setting up the symmetry group for a 
 simple tetragonal supercell.


 Subroutine GETGRP returns: Found 16 space group operations
 (whereof 16 operations were pure point group operations)
 out of a pool of 16 trial point group operations.


The dynamic configuration has the point symmetry D_4h.


Analysis of structural, dynamic, and magnetic symmetry:
=====================================================================
 Subroutine PRICEL returns following result:
 
  LATTYP: Found a simple tetragonal cell.
 ALAT       =    15.0000000000
 C/A-ratio  =     0.1000000000
  
  Lattice vectors:
  
 A1 = (  15.0000000000,   0.0000000000,   0.0000000000)
 A2 = (   0.0000000000,  15.0000000000,   0.0000000000)
 A3 = (   0.0000000000,   0.0000000000,   1.5000000000)
 
   8 primitive cells build up your supercell.
 

 Routine SETGRP: Setting up the symmetry group for a 
 simple tetragonal supercell.


 Subroutine GETGRP returns: Found 16 space group operations
 (whereof 16 operations were pure point group operations)
 out of a pool of 16 trial point group operations.


The magnetic configuration has the point symmetry D_4h.


 Subroutine INISYM returns: Found 16 space group operations
 (whereof 16 operations are pure point group operations),
 and found     8 'primitive' translations

 
 
 KPOINTS: Automatic kpoint scheme                 

Automatic generation of k-mesh.
Space group operators:
 irot       det(A)        alpha          n_x          n_y          n_z        tau_x        tau_y        tau_z
    1     1.000000     0.000001     1.000000     0.000000     0.000000     0.000000     0.000000     0.000000
    2    -1.000000     0.000001     1.000000     0.000000     0.000000     0.000000     0.000000     0.000000
    3     1.000000    90.000000     0.000000     0.000000    -1.000000     0.000000     0.000000     0.000000
    4    -1.000000    90.000000     0.000000     0.000000    -1.000000     0.000000     0.000000     0.000000
    5     1.000000   180.000000    -0.000000    -0.000000     1.000000     0.000000     0.000000     0.000000
    6    -1.000000   180.000000    -0.000000    -0.000000     1.000000     0.000000     0.000000     0.000000
    7     1.000000    90.000000    -0.000000    -0.000000     1.000000     0.000000     0.000000     0.000000
    8    -1.000000    90.000000    -0.000000    -0.000000     1.000000     0.000000     0.000000     0.000000
    9     1.000000   180.000000     0.000000     1.000000     0.000000     0.000000     0.000000     0.000000
   10    -1.000000   180.000000     0.000000     1.000000     0.000000     0.000000     0.000000     0.000000
   11     1.000000   180.000000     0.707107     0.707107     0.000000     0.000000     0.000000     0.000000
   12    -1.000000   180.000000     0.707107     0.707107     0.000000     0.000000     0.000000     0.000000
   13     1.000000   180.000000     1.000000    -0.000000     0.000000     0.000000     0.000000     0.000000
   14    -1.000000   180.000000     1.000000    -0.000000     0.000000     0.000000     0.000000     0.000000
   15     1.000000   180.000000     0.707107    -0.707107     0.000000     0.000000     0.000000     0.000000
   16    -1.000000   180.000000     0.707107    -0.707107     0.000000     0.000000     0.000000     0.000000
 
 Subroutine IBZKPT returns following result:
 ===========================================
 
 Found      1 irreducible k-points:
 
 Following reciprocal coordinates:
            Coordinates               Weight
  0.000000  0.000000  0.000000      1.000000
 
 Following cartesian coordinates:
            Coordinates               Weight
  0.000000  0.000000  0.000000      1.000000
 


--------------------------------------------------------------------------------------------------------




 Dimension of arrays:
   k-points           NKPTS =      1   k-points in BZ     NKDIM =      1   number of bands    NBANDS=     12
   number of dos      NEDOS =    301   number of ions     NIONS =      8
   non local maximal  LDIM  =      3   non local SUM 2l+1 LMDIM =      5
   total plane-waves  NPLWV = 221184
   max r-space proj   IRMAX =      1   max aug-charges    IRDMAX=    598
   dimension x,y,z NGX =    64 NGY =   64 NGZ =   54
   dimension x,y,z NGXF=   128 NGYF=  128 NGZF=  108
   support grid    NGXF=   128 NGYF=  128 NGZF=  108
   ions per type =               8
   NGX,Y,Z   is equivalent  to a cutoff of   7.09,  7.09,  7.48 a.u.
   NGXF,Y,Z  is equivalent  to a cutoff of  14.19, 14.19, 14.96 a.u.

 SYSTEM =  unknown system                          
 POSCAR =  H8                                      

 Startparameter for this run:
   NWRITE =      2    write-flag & timer
   PREC   = normal    normal or accurate (medium, high low for compatibility)
   ISTART =      0    job   : 0-new  1-cont  2-samecut
   ICHARG =      2    charge: 1-file 2-atom 10-const
   ISPIN  =      2    spin polarized calculation?
   LNONCOLLINEAR =      F non collinear calculations
   LSORBIT =      F    spin-orbit coupling
   INIWAV =      1    electr: 0-lowe 1-rand  2-diag
   LASPH  =      F    aspherical Exc in radial PAW
   METAGGA=      F    non-selfconsistent MetaGGA calc.

 Electronic Relaxation 1
   ENCUT  =  300.0 eV  22.05 Ry    4.70 a.u.  21.18 21.18 16.95*2*pi/ulx,y,z
   ENINI  =  300.0     initial cutoff
   ENAUG  =  400.0 eV  augmentation charge cutoff
   NELM   =    100;   NELMIN=  2; NELMDL= -5     # of ELM steps 
   EDIFF  = 0.1E-05   stopping-criterion for ELM
   LREAL  =      F    real-space projection
   NLSPLINE    = F    spline interpolate recip. space projectors
   LCOMPAT=      F    compatible to vasp.4.4
   GGA_COMPAT  = T    GGA compatible to vasp.4.4-vasp.4.6
   LMAXPAW     = -100 max onsite density
   LMAXMIX     =    2 max onsite mixed and CHGCAR
   VOSKOWN=      0    Vosko Wilk Nusair interpolation
   ROPT   =    0.00000
 Ionic relaxation
   EDIFFG = 0.1E-04   stopping-criterion for IOM
   NSW    =      0    number of steps for IOM
   NBLOCK =      1;   KBLOCK =      1    inner block; outer block 
   IBRION =     -1    ionic relax: 0-MD 1-quasi-New 2-CG
   NFREE  =      0    steps in history (QN), initial steepest desc. (CG)
   ISIF   =      2    stress and relaxation
   IWAVPR =     10    prediction:  0-non 1-charg 2-wave 3-comb
   ISYM   =      2    0-nonsym 1-usesym 2-fastsym
   LCORR  =      T    Harris-Foulkes like correction to forces

   POTIM  = 0.5000    time-step for ionic-motion
   TEIN   =    0.0    initial temperature
   TEBEG  =    0.0;   TEEND  =   0.0 temperature during run
   SMASS  =  -3.00    Nose mass-parameter (am)
   estimated Nose-frequenzy (Omega)   =  0.10E-29 period in steps =****** mass=  -0.514E-26a.u.
   SCALEE = 1.0000    scale energy and forces
   NPACO  =    256;   APACO  = 16.0  distance and # of slots for P.C.
   PSTRESS=    0.0 pullay stress

  Mass of Ions in am
   POMASS =   1.00
  Ionic Valenz
   ZVAL   =   1.00
  Atomic Wigner-Seitz radii
   RWIGS  =  -1.00
  virtual crystal weights 
   VCA    =   1.00
   NELECT =       8.0000    total number of electrons
   NUPDOWN=       0.0000    fix difference up-down

 DOS related values:
   EMIN   =  10.00;   EMAX   =-10.00  energy-range for DOS
   EFERMI =   0.00
   ISMEAR =     0;   SIGMA  =   0.20  broadening in eV -4-tet -1-fermi 0-gaus

 Electronic relaxation 2 (details)
   IALGO  =     38    algorithm
   LDIAG  =      T    sub-space diagonalisation (order eigenvalues)
   LSUBROT=      F    optimize rotation matrix (better conditioning)
   TURBO    =      0    0=normal 1=particle mesh
   IRESTART =      0    0=no restart 2=restart with 2 vectors
   NREBOOT  =      0    no. of reboots
   NMIN     =      0    reboot dimension
   EREF     =   0.00    reference energy to select bands
   IMIX   =      4    mixing-type and parameters
     AMIX     =   0.40;   BMIX     =  1.00
     AMIX_MAG =   1.60;   BMIX_MAG =  1.00
     AMIN     =   0.10
     WC   =   100.;   INIMIX=   1;  MIXPRE=   1;  MAXMIX= -45

 Intra band minimization:
   WEIMIN = 0.0000     energy-eigenvalue tresh-hold
   EBREAK =  0.21E-07  absolut break condition
   DEPER  =   0.30     relativ break condition  

   TIME   =   0.40     timestep for ELM

  volume/ion in A,a.u.               =     337.50      2277.56
  Fermi-wavevector in a.u.,A,eV,Ry     =   0.235135  0.444340  0.752244  0.055288
  Thomas-Fermi vector in A             =   1.033980
 
 Write flags
   LWAVE        =      F    write WAVECAR
   LDOWNSAMPLE  =      F    k-point downsampling of WAVECAR
   LCHARG       =      F    write CHGCAR
   LVTOT        =      F    write LOCPOT, total local potential
   LVHAR        =      F    write LOCPOT, Hartree potential only
   LELF         =      F    write electronic localiz. function (ELF)
   LORBIT       =      0    0 simple, 1 ext, 2 COOP (PROOUT), +10 PAW based schemes


 Dipole corrections
   LMONO  =      F    monopole corrections only (constant potential shift)
   LDIPOL =      F    correct potential (dipole corrections)
   IDIPOL =      0    1-x, 2-y, 3-z, 4-all directions 
   EPSILON=  1.0000000 bulk dielectric constant

 Exchange correlation treatment:
   GGA     =    --    GGA type
   LEXCH   =     8    internal setting for exchange type
   VOSKOWN=      0    Vosko Wilk Nusair interpolation
   LHFCALC =     F    Hartree Fock is set to
   LHFONE  =     F    Hartree Fock one center treatment
   AEXX    =    0.0000 exact exchange contribution

 Linear response parameters
   LEPSILON=     F    determine dielectric tensor
   LRPA    =     F    only Hartree local field effects (RPA)
   LNABLA  =     F    use nabla operator in PAW spheres
   LVEL    =     F    velocity operator in full k-point grid
   LINTERFAST=   F  fast interpolation
   KINTER  =     0    interpolate to denser k-point grid
   CSHIFT  =0.1000    complex shift for real part using Kramers Kronig
   OMEGAMAX=  -1.0    maximum frequency
   DEG_THRESHOLD= 0.2000000E-02 threshold for treating states as degnerate
   RTIME   =   -0.100 relaxation time in fs
  (WPLASMAI=    0.000 imaginary part of plasma frequency in eV, 0.658/RTIME)
   DFIELD  = 0.0000000 0.0000000 0.0000000 field for delta impulse in time
 
 Orbital magnetization related:
   ORBITALMAG=     F  switch on orbital magnetization
   LCHIMAG   =     F  perturbation theory with respect to B field
   DQ        =  0.001000  dq finite difference perturbation B field
   LLRAUG    =     F  two centre corrections for induced B field



--------------------------------------------------------------------------------------------------------


 Static calculation
 charge density and potential will be updated during run
 spin polarized calculation
 Variant of blocked Davidson
 Davidson routine will perform the subspace rotation
 perform sub-space diagonalisation
    after iterative eigenvector-optimisation
 modified Broyden-mixing scheme, WC =      100.0
 initial mixing is a Kerker type mixing with AMIX =  0.4000 and BMIX =      1.0000
 Hartree-type preconditioning will be used
 using additional bands            8
 reciprocal scheme for non local part
 calculate Harris-corrections to forces 
   (improved forces if not selfconsistent)
 use gradient corrections 
 use of overlap-Matrix (Vanderbilt PP)
 Gauss-broadening in eV      SIGMA  =   0.20


--------------------------------------------------------------------------------------------------------


  energy-cutoff  :      300.00
  volume of cell :     2700.00
      direct lattice vectors                 reciprocal lattice vectors
    15.000000000  0.000000000  0.000000000     0.066666667 -0.000000000  0.000000000
     0.000000000 15.000000000  0.000000000     0.000000000  0.066666667  0.000000000
     0.000000000  0.000000000 12.000000000    -0.000000000 -0.000000000  0.083333333

  length of vectors
    15.000000000 15.000000000 12.000000000     0.066666667  0.066666667  0.083333333


 
 k-points in units of 2pi/SCALE and weight: Automatic kpoint scheme                 
   0.00000000  0.00000000  0.00000000       1.000
 
 k-points in reciprocal lattice and weights: Automatic kpoint scheme                 
   0.00000000  0.00000000  0.00000000       1.000
 
 position of ions in fractional coordinates (direct lattice) 
   0.00000000  0.00000000  0.00000000
   0.00000000  0.00000000  0.12500000
   0.00000000  0.00000000  0.25000000
   0.00000000  0.00000000  0.37500000
   0.00000000  0.00000000  0.50000000
   0.00000000  0.00000000  0.62500000
   0.00000000  0.00000000  0.75000000
   0.00000000  0.00000000  0.87500000
 
 position of ions in cartesian coordinates  (Angst):
   0.00000000  0.00000000  0.00000000
   0.00000000  0.00000000  1.50000000
   0.00000000  0.00000000  3.00000000
   0.00000000  0.00000000  4.50000000
   0.00000000  0.00000000  6.00000000
   0.00000000  0.00000000  7.50000000
   0.00000000  0.00000000  9.00000000
   0.00000000  0.00000000 10.50000000
 


--------------------------------------------------------------------------------------------------------


 k-point  1 :   0.0000 0.0000 0.0000  plane waves:   31717

 maximum and minimum number of plane-waves per node :     31717    31717

 maximum number of plane-waves:     31717
 maximum index in each direction: 
   IXMAX=   21   IYMAX=   21   IZMAX=   16
   IXMIN=  -21   IYMIN=  -21   IZMIN=  -16


 serial   3D FFT for wavefunctions
 parallel 3D FFT for charge:
    minimum data exchange during FFTs selected (reduces bandwidth)


 total amount of memory used by VASP MPI-rank0   104550. kBytes
=======================================================================

   base      :      30000. kBytes
   nonl-proj :       5328. kBytes
   fftplans  :      16020. kBytes
   grid      :      50135. kBytes
   one-center:         19. kBytes
   wavefun   :       3048. kBytes
 
     INWAV:  cpu time    0.0000: real time    0.0000
 Broyden mixing: mesh for mixing (old mesh)
   NGX = 43   NGY = 43   NGZ = 33
  (NGX  =128   NGY  =128   NGZ  =108)
  gives a total of  61017 points

 initial charge density was supplied:
 charge density of overlapping atoms calculated
 number of electron       8.0000000 magnetization       0.0000000
 keeping initial charge density in first step


--------------------------------------------------------------------------------------------------------


 Maximum index for augmentation-charges           91 (set IRDMAX)


--------------------------------------------------------------------------------------------------------


 First call to EWALD:  gamma=   0.127
 Maximum number of real-space cells 3x 3x 3
 Maximum number of reciprocal cells 3x 3x 2

    FEWALD:  cpu time    0.0017: real time    0.0017


--------------------------------------- Iteration      1(   1)  ---------------------------------------


    POTLOK:  cpu time    0.6442: real time    0.6441
    SETDIJ:  cpu time    0.0106: real time    0.0106
     EDDAV:  cpu time    0.5230: real time    0.5230
       DOS:  cpu time    0.0016: real time    0.0016
    --------------------------------------------
      LOOP:  cpu time    1.1794: real time    1.1793

 eigenvalue-minimisations  :    64
 total energy-change (2. order) :-0.1975876E+01  (-0.1155132E+03)
 number of electron       8.0000000 magnetization       0.0000000
 augmentation part        8.0000000 magnetization       0.0000000

 Free energy of the ion-electron system (eV)
  ---------------------------------------------------
  alpha Z        PSCENC =         0.05774619
  Ewald energy   TEWEN  =        67.28507057
  -Hartree energ DENC   =      -125.33211459
  -exchange      EXHF   =         0.00000000
  -V(xc)+E(xc)   XCENC  =        16.68985608
  PAW double counting   =        17.07221949      -17.14324176
  entropy T*S    EENTRO =        -0.00000000
  eigenvalues    EBANDS =       -60.17161536
  atomic energy  EATOM  =        99.56620307
  Solvation  Ediel_sol  =         0.00000000
  ---------------------------------------------------
  free energy    TOTEN  =        -1.97587630 eV

  energy without entropy =       -1.97587630  energy(sigma->0) =       -1.97587630


--------------------------------------------------------------------------------------------------------




--------------------------------------- Iteration      1(   2)  ---------------------------------------


     EDDAV:  cpu time    0.4925: real time    0.4924
       DOS:  cpu time    0.0014: real time    0.0014
    --------------------------------------------
      LOOP:  cpu time    0.4939: real time    0.4938

 eigenvalue-minimisations  :    60
 total energy-change (2. order) :-0.1384742E+02  (-0.1382253E+02)
 number of electron       8.0000000 magnetization       0.0000000
 augmentation part        8.0000000 magnetization       0.0000000

 Free energy of the ion-electron system (eV)
  ---------------------------------------------------
  alpha Z        PSCENC =         0.05774619
  Ewald energy   TEWEN  =        67.28507057
  -Hartree energ DENC   =      -125.33211459
  -exchange      EXHF   =         0.00000000
  -V(xc)+E(xc)   XCENC  =        16.68985608
  PAW double counting   =        17.07221949      -17.14324176
  entropy T*S    EENTRO =        -0.01795081
  eigenvalues    EBANDS =       -74.00108535
  atomic energy  EATOM  =        99.56620307
  Solvation  Ediel_sol  =         0.00000000
  ---------------------------------------------------
  free energy    TOTEN  =       -15.82329709 eV

  energy without entropy =      -15.80534629  energy(sigma->0) =      -15.81432169


--------------------------------------------------------------------------------------------------------




--------------------------------------- Iteration      1(   3)  ---------------------------------------


     EDDAV:  cpu time    0.5976: real time    0.5974
       DOS:  cpu time    0.0003: real time    0.0003
    --------------------------------------------
      LOOP:  cpu time    0.5979: real time    0.5977

 eigenvalue-minimisations  :    76
 total energy-change (2. order) :-0.8438611E+00  (-0.6588146E+00)
 number of electron       8.0000000 magnetization       0.0000000
 augmentation part        8.0000000 magnetization       0.0000000

 Free energy of the ion-electron system (eV)
  ---------------------------------------------------
  alpha Z        PSCENC =         0.05774619
  Ewald energy   TEWEN  =        67.28507057
  -Hartree energ DENC   =      -125.33211459
  -exchange      EXHF   =         0.00000000
  -V(xc)+E(xc)   XCENC  =        16.68985608
  PAW double counting   =        17.07221949      -17.14324176
  entropy T*S    EENTRO =        -0.22400790
  eigenvalues    EBANDS =       -74.63888935
  atomic energy  EATOM  =        99.56620307
  Solvation  Ediel_sol  =         0.00000000
  ---------------------------------------------------
  free energy    TOTEN  =       -16.66715818 eV

  energy without entropy =      -16.44315029  energy(sigma->0) =      -16.55515423


--------------------------------------------------------------------------------------------------------




--------------------------------------- Iteration      1(   4)  ---------------------------------------


     EDDAV:  cpu time    0.5040: real time    0.5038
       DOS:  cpu time    0.0003: real time    0.0003
    --------------------------------------------
      LOOP:  cpu time    0.5043: real time    0.5040

 eigenvalue-minimisations  :    64
 total energy-change (2. order) :-0.2863287E-01  (-0.2696946E-01)
 number of electron       8.0000000 magnetization       0.0000000
 augmentation part        8.0000000 magnetization       0.0000000

 Free energy of the ion-electron system (eV)
  ---------------------------------------------------
  alpha Z        PSCENC =         0.05774619
  Ewald energy   TEWEN  =        67.28507057
  -Hartree energ DENC   =      -125.33211459
  -exchange      EXHF   =         0.00000000
  -V(xc)+E(xc)   XCENC  =        16.68985608
  PAW double counting   =        17.07221949      -17.14324176
  entropy T*S    EENTRO =        -0.22567582
  eigenvalues    EBANDS =       -74.66585430
  atomic energy  EATOM  =        99.56620307
  Solvation  Ediel_sol  =         0.00000000
  ---------------------------------------------------
  free energy    TOTEN  =       -16.69579106 eV

  energy without entropy =      -16.47011524  energy(sigma->0) =      -16.58295315


--------------------------------------------------------------------------------------------------------




--------------------------------------- Iteration      1(   5)  ---------------------------------------


     EDDAV:  cpu time    0.5089: real time    0.5087
       DOS:  cpu time    0.0003: real time    0.0003
    CHARGE:  cpu time    0.1918: real time    0.1917
    MIXING:  cpu time    0.0115: real time    0.0115
    --------------------------------------------
      LOOP:  cpu time    0.7125: real time    0.7123

 eigenvalue-minimisations  :    64
 total energy-change (2. order) :-0.2953761E-03  (-0.2953659E-03)
 number of electron       8.0000055 magnetization      -0.0000000
 augmentation part        0.1035291 magnetization      -0.0000050

 Broyden mixing:
  rms(total) = 0.15844E+00    rms(broyden)= 0.15742E+00
  rms(prec ) = 0.17773E+00
  weight for this iteration     100.00

 Free energy of the ion-electron system (eV)
  ---------------------------------------------------
  alpha Z        PSCENC =         0.05774619
  Ewald energy   TEWEN  =        67.28507057
  -Hartree energ DENC   =      -125.33211459
  -exchange      EXHF   =         0.00000000
  -V(xc)+E(xc)   XCENC  =        16.68985608
  PAW double counting   =        17.07221949      -17.14324176
  entropy T*S    EENTRO =        -0.22567583
  eigenvalues    EBANDS =       -74.66614966
  atomic energy  EATOM  =        99.56620307
  Solvation  Ediel_sol  =         0.00000000
  ---------------------------------------------------
  free energy    TOTEN  =       -16.69608643 eV

  energy without entropy =      -16.47041060  energy(sigma->0) =      -16.58324852


--------------------------------------------------------------------------------------------------------




--------------------------------------- Iteration      1(   6)  ---------------------------------------


    POTLOK:  cpu time    0.6681: real time    0.6678
    SETDIJ:  cpu time    0.0113: real time    0.0113
     EDDAV:  cpu time    0.5137: real time    0.5134
       DOS:  cpu time    0.0003: real time    0.0003
    CHARGE:  cpu time    0.1842: real time    0.1842
    MIXING:  cpu time    0.0128: real time    0.0128
    --------------------------------------------
      LOOP:  cpu time    1.3904: real time    1.3898

 eigenvalue-minimisations  :    64
 total energy-change (2. order) :-0.5807146E-03  (-0.1109105E-02)
 number of electron       8.0000055 magnetization      -0.0000000
 augmentation part        0.1027933 magnetization      -0.0000008

 Broyden mixing:
  rms(total) = 0.99531E-01    rms(broyden)= 0.99453E-01
  rms(prec ) = 0.11374E+00
  weight for this iteration     100.00

 eigenvalues of (default mixing * dielectric matrix)
  average eigenvalue GAMMA=   2.6665
  2.6665

 Free energy of the ion-electron system (eV)
  ---------------------------------------------------
  alpha Z        PSCENC =         0.05774619
  Ewald energy   TEWEN  =        67.28507057
  -Hartree energ DENC   =      -126.81655532
  -exchange      EXHF   =         0.00000000
  -V(xc)+E(xc)   XCENC  =        16.89119091
  PAW double counting   =        21.86743344      -21.93917588
  entropy T*S    EENTRO =        -0.22567583
  eigenvalues    EBANDS =       -73.38290430
  atomic energy  EATOM  =        99.56620307
  Solvation  Ediel_sol  =         0.00000000
  ---------------------------------------------------
  free energy    TOTEN  =       -16.69666715 eV

  energy without entropy =      -16.47099132  energy(sigma->0) =      -16.58382923


--------------------------------------------------------------------------------------------------------




--------------------------------------- Iteration      1(   7)  ---------------------------------------


    POTLOK:  cpu time    0.6604: real time    0.6602
    SETDIJ:  cpu time    0.0113: real time    0.0113
     EDDAV:  cpu time    0.4198: real time    0.4196
       DOS:  cpu time    0.0003: real time    0.0003
    CHARGE:  cpu time    0.1880: real time    0.1879
    MIXING:  cpu time    0.0135: real time    0.0134
    --------------------------------------------
      LOOP:  cpu time    1.2933: real time    1.2927

 eigenvalue-minimisations  :    48
 total energy-change (2. order) : 0.6045398E-02  (-0.3968339E-02)
 number of electron       8.0000054 magnetization       0.0000000
 augmentation part        0.1013565 magnetization       0.0000019

 Broyden mixing:
  rms(total) = 0.12066E-01    rms(broyden)= 0.11969E-01
  rms(prec ) = 0.17177E-01
  weight for this iteration     100.00

 eigenvalues of (default mixing * dielectric matrix)
  average eigenvalue GAMMA=   2.7652
  2.7652  2.7652

 Free energy of the ion-electron system (eV)
  ---------------------------------------------------
  alpha Z        PSCENC =         0.05774619
  Ewald energy   TEWEN  =        67.28507057
  -Hartree energ DENC   =      -129.67896819
  -exchange      EXHF   =         0.00000000
  -V(xc)+E(xc)   XCENC  =        17.27523133
  PAW double counting   =        31.13131006      -31.20418699
  entropy T*S    EENTRO =        -0.22567583
  eigenvalues    EBANDS =       -70.89735197
  atomic energy  EATOM  =        99.56620307
  Solvation  Ediel_sol  =         0.00000000
  ---------------------------------------------------
  free energy    TOTEN  =       -16.69062175 eV

  energy without entropy =      -16.46494592  energy(sigma->0) =      -16.57778383


--------------------------------------------------------------------------------------------------------




--------------------------------------- Iteration      1(   8)  ---------------------------------------


    POTLOK:  cpu time    0.6566: real time    0.6563
    SETDIJ:  cpu time    0.0111: real time    0.0111
     EDDAV:  cpu time    0.4145: real time    0.4177
       DOS:  cpu time    0.0003: real time    0.0003
    CHARGE:  cpu time    0.1858: real time    0.1857
    MIXING:  cpu time    0.0144: real time    0.0145
    --------------------------------------------
      LOOP:  cpu time    1.2827: real time    1.2856

 eigenvalue-minimisations  :    48
 total energy-change (2. order) :-0.2619936E-02  (-0.1366701E-03)
 number of electron       8.0000054 magnetization      -0.0000000
 augmentation part        0.1011608 magnetization      -0.0000067

 Broyden mixing:
  rms(total) = 0.30938E-02    rms(broyden)= 0.30695E-02
  rms(prec ) = 0.65939E-02
  weight for this iteration     100.00

 eigenvalues of (default mixing * dielectric matrix)
  average eigenvalue GAMMA=   2.2543
  0.9825  3.0983  2.6819

 Free energy of the ion-electron system (eV)
  ---------------------------------------------------
  alpha Z        PSCENC =         0.05774619
  Ewald energy   TEWEN  =        67.28507057
  -Hartree energ DENC   =      -130.14516983
  -exchange      EXHF   =         0.00000000
  -V(xc)+E(xc)   XCENC  =        17.30793826
  PAW double counting   =        29.75171708      -29.82252547
  entropy T*S    EENTRO =        -0.22567583
  eigenvalues    EBANDS =       -70.46854572
  atomic energy  EATOM  =        99.56620307
  Solvation  Ediel_sol  =         0.00000000
  ---------------------------------------------------
  free energy    TOTEN  =       -16.69324169 eV

  energy without entropy =      -16.46756585  energy(sigma->0) =      -16.58040377


--------------------------------------------------------------------------------------------------------




--------------------------------------- Iteration      1(   9)  ---------------------------------------


    POTLOK:  cpu time    0.6629: real time    0.6625
    SETDIJ:  cpu time    0.0112: real time    0.0112
     EDDAV:  cpu time    0.4633: real time    0.4630
       DOS:  cpu time    0.0003: real time    0.0003
    CHARGE:  cpu time    0.1853: real time    0.1852
    MIXING:  cpu time    0.0156: real time    0.0156
    --------------------------------------------
      LOOP:  cpu time    1.3385: real time    1.3378

 eigenvalue-minimisations  :    56
 total energy-change (2. order) :-0.3310182E-03  (-0.1598718E-04)
 number of electron       8.0000054 magnetization       0.0000000
 augmentation part        0.1010911 magnetization       0.0000052

 Broyden mixing:
  rms(total) = 0.20985E-02    rms(broyden)= 0.20956E-02
  rms(prec ) = 0.47214E-02
  weight for this iteration     100.00

 eigenvalues of (default mixing * dielectric matrix)
  average eigenvalue GAMMA=   2.0673
  3.2913  2.5742  1.7077  0.6958

 Free energy of the ion-electron system (eV)
  ---------------------------------------------------
  alpha Z        PSCENC =         0.05774619
  Ewald energy   TEWEN  =        67.28507057
  -Hartree energ DENC   =      -130.35444468
  -exchange      EXHF   =         0.00000000
  -V(xc)+E(xc)   XCENC  =        17.32591127
  PAW double counting   =        29.92081085      -29.99151502
  entropy T*S    EENTRO =        -0.22567583
  eigenvalues    EBANDS =       -70.27767912
  atomic energy  EATOM  =        99.56620307
  Solvation  Ediel_sol  =         0.00000000
  ---------------------------------------------------
  free energy    TOTEN  =       -16.69357270 eV

  energy without entropy =      -16.46789687  energy(sigma->0) =      -16.58073479


--------------------------------------------------------------------------------------------------------




--------------------------------------- Iteration      1(  10)  ---------------------------------------


    POTLOK:  cpu time    0.6599: real time    0.6596
    SETDIJ:  cpu time    0.0113: real time    0.0113
     EDDAV:  cpu time    0.4142: real time    0.4140
       DOS:  cpu time    0.0003: real time    0.0003
    CHARGE:  cpu time    0.1837: real time    0.1837
    MIXING:  cpu time    0.0160: real time    0.0160
    --------------------------------------------
      LOOP:  cpu time    1.2854: real time    1.2849

 eigenvalue-minimisations  :    48
 total energy-change (2. order) :-0.9705696E-03  (-0.1293712E-04)
 number of electron       8.0000054 magnetization       0.0000000
 augmentation part        0.1010711 magnetization      -0.0000051

 Broyden mixing:
  rms(total) = 0.13428E-02    rms(broyden)= 0.13425E-02
  rms(prec ) = 0.28482E-02
  weight for this iteration     100.00

 eigenvalues of (default mixing * dielectric matrix)
  average eigenvalue GAMMA=   2.3276
  4.4146  2.9755  2.5368  1.0300  0.6813

 Free energy of the ion-electron system (eV)
  ---------------------------------------------------
  alpha Z        PSCENC =         0.05774619
  Ewald energy   TEWEN  =        67.28507057
  -Hartree energ DENC   =      -130.51850349
  -exchange      EXHF   =         0.00000000
  -V(xc)+E(xc)   XCENC  =        17.33355683
  PAW double counting   =        30.05994406      -30.13081160
  entropy T*S    EENTRO =        -0.22567583
  eigenvalues    EBANDS =       -70.12207308
  atomic energy  EATOM  =        99.56620307
  Solvation  Ediel_sol  =         0.00000000
  ---------------------------------------------------
  free energy    TOTEN  =       -16.69454327 eV

  energy without entropy =      -16.46886744  energy(sigma->0) =      -16.58170536


--------------------------------------------------------------------------------------------------------




--------------------------------------- Iteration      1(  11)  ---------------------------------------


    POTLOK:  cpu time    0.6579: real time    0.6576
    SETDIJ:  cpu time    0.0111: real time    0.0111
     EDDAV:  cpu time    0.4183: real time    0.4181
       DOS:  cpu time    0.0003: real time    0.0003
    CHARGE:  cpu time    0.1855: real time    0.1854
    MIXING:  cpu time    0.0168: real time    0.0168
    --------------------------------------------
      LOOP:  cpu time    1.2897: real time    1.2891

 eigenvalue-minimisations  :    48
 total energy-change (2. order) : 0.1948502E-04  (-0.1362943E-04)
 number of electron       8.0000054 magnetization      -0.0000000
 augmentation part        0.1010636 magnetization      -0.0000011

 Broyden mixing:
  rms(total) = 0.75021E-03    rms(broyden)= 0.75015E-03
  rms(prec ) = 0.16605E-02
  weight for this iteration     100.00

 eigenvalues of (default mixing * dielectric matrix)
  average eigenvalue GAMMA=   2.2169
  4.8723  3.0123  2.5414  1.3040  0.8988  0.6724

 Free energy of the ion-electron system (eV)
  ---------------------------------------------------
  alpha Z        PSCENC =         0.05774619
  Ewald energy   TEWEN  =        67.28507057
  -Hartree energ DENC   =      -130.62593746
  -exchange      EXHF   =         0.00000000
  -V(xc)+E(xc)   XCENC  =        17.33726453
  PAW double counting   =        30.10006798      -30.17103888
  entropy T*S    EENTRO =        -0.22567583
  eigenvalues    EBANDS =       -70.01822396
  atomic energy  EATOM  =        99.56620307
  Solvation  Ediel_sol  =         0.00000000
  ---------------------------------------------------
  free energy    TOTEN  =       -16.69452379 eV

  energy without entropy =      -16.46884796  energy(sigma->0) =      -16.58168587


--------------------------------------------------------------------------------------------------------




--------------------------------------- Iteration      1(  12)  ---------------------------------------


    POTLOK:  cpu time    0.6528: real time    0.6525
    SETDIJ:  cpu time    0.0113: real time    0.0113
     EDDAV:  cpu time    0.4179: real time    0.4177
       DOS:  cpu time    0.0003: real time    0.0003
    CHARGE:  cpu time    0.1839: real time    0.1838
    MIXING:  cpu time    0.0180: real time    0.0180
    --------------------------------------------
      LOOP:  cpu time    1.2843: real time    1.2836

 eigenvalue-minimisations  :    48
 total energy-change (2. order) :-0.1243177E-02  (-0.1313731E-04)
 number of electron       8.0000054 magnetization      -0.0000000
 augmentation part        0.1010533 magnetization       0.0000011

 Broyden mixing:
  rms(total) = 0.42972E-03    rms(broyden)= 0.42964E-03
  rms(prec ) = 0.81050E-03
  weight for this iteration     100.00

 eigenvalues of (default mixing * dielectric matrix)
  average eigenvalue GAMMA=   2.4990
  6.1493  3.4076  2.9770  2.5295  1.0323  0.7490  0.6480

 Free energy of the ion-electron system (eV)
  ---------------------------------------------------
  alpha Z        PSCENC =         0.05774619
  Ewald energy   TEWEN  =        67.28507057
  -Hartree energ DENC   =      -130.68479789
  -exchange      EXHF   =         0.00000000
  -V(xc)+E(xc)   XCENC  =        17.33867551
  PAW double counting   =        30.03078075      -30.10165332
  entropy T*S    EENTRO =        -0.22567583
  eigenvalues    EBANDS =       -69.96211603
  atomic energy  EATOM  =        99.56620307
  Solvation  Ediel_sol  =         0.00000000
  ---------------------------------------------------
  free energy    TOTEN  =       -16.69576697 eV

  energy without entropy =      -16.47009113  energy(sigma->0) =      -16.58292905


--------------------------------------------------------------------------------------------------------




--------------------------------------- Iteration      1(  13)  ---------------------------------------


    POTLOK:  cpu time    0.6605: real time    0.6602
    SETDIJ:  cpu time    0.0112: real time    0.0112
     EDDAV:  cpu time    0.4160: real time    0.4159
       DOS:  cpu time    0.0003: real time    0.0003
    CHARGE:  cpu time    0.1842: real time    0.1842
    MIXING:  cpu time    0.0200: real time    0.0200
    --------------------------------------------
      LOOP:  cpu time    1.2923: real time    1.2918

 eigenvalue-minimisations  :    48
 total energy-change (2. order) :-0.3577495E-03  (-0.2516420E-05)
 number of electron       8.0000054 magnetization       0.0000000
 augmentation part        0.1010485 magnetization      -0.0000003

 Broyden mixing:
  rms(total) = 0.31228E-03    rms(broyden)= 0.31224E-03
  rms(prec ) = 0.52907E-03
  weight for this iteration     100.00

 eigenvalues of (default mixing * dielectric matrix)
  average eigenvalue GAMMA=   2.4478
  6.6764  3.7999  3.0124  2.5409  1.2736  0.9025  0.7314  0.6457

 Free energy of the ion-electron system (eV)
  ---------------------------------------------------
  alpha Z        PSCENC =         0.05774619
  Ewald energy   TEWEN  =        67.28507057
  -Hartree energ DENC   =      -130.69430449
  -exchange      EXHF   =         0.00000000
  -V(xc)+E(xc)   XCENC  =        17.33810892
  PAW double counting   =        30.00893855      -30.07978539
  entropy T*S    EENTRO =        -0.22567583
  eigenvalues    EBANDS =       -69.95242631
  atomic energy  EATOM  =        99.56620307
  Solvation  Ediel_sol  =         0.00000000
  ---------------------------------------------------
  free energy    TOTEN  =       -16.69612471 eV

  energy without entropy =      -16.47044888  energy(sigma->0) =      -16.58328680


--------------------------------------------------------------------------------------------------------




--------------------------------------- Iteration      1(  14)  ---------------------------------------


    POTLOK:  cpu time    0.6524: real time    0.6521
    SETDIJ:  cpu time    0.0112: real time    0.0112
     EDDAV:  cpu time    0.4203: real time    0.4201
       DOS:  cpu time    0.0003: real time    0.0003
    CHARGE:  cpu time    0.1859: real time    0.1858
    MIXING:  cpu time    0.0214: real time    0.0214
    --------------------------------------------
      LOOP:  cpu time    1.2915: real time    1.2909

 eigenvalue-minimisations  :    48
 total energy-change (2. order) :-0.3052315E-03  (-0.1921273E-05)
 number of electron       8.0000054 magnetization       0.0000000
 augmentation part        0.1010502 magnetization       0.0000009

 Broyden mixing:
  rms(total) = 0.14364E-03    rms(broyden)= 0.14364E-03
  rms(prec ) = 0.22866E-03
  weight for this iteration     100.00

 eigenvalues of (default mixing * dielectric matrix)
  average eigenvalue GAMMA=   2.5680
  7.4197  4.5150  3.0120  2.6125  2.3815  0.9764  0.8629  0.6803  0.6520

 Free energy of the ion-electron system (eV)
  ---------------------------------------------------
  alpha Z        PSCENC =         0.05774619
  Ewald energy   TEWEN  =        67.28507057
  -Hartree energ DENC   =      -130.68624250
  -exchange      EXHF   =         0.00000000
  -V(xc)+E(xc)   XCENC  =        17.33631312
  PAW double counting   =        30.02216565      -30.09302648
  entropy T*S    EENTRO =        -0.22567583
  eigenvalues    EBANDS =       -69.95898375
  atomic energy  EATOM  =        99.56620307
  Solvation  Ediel_sol  =         0.00000000
  ---------------------------------------------------
  free energy    TOTEN  =       -16.69642995 eV

  energy without entropy =      -16.47075411  energy(sigma->0) =      -16.58359203


--------------------------------------------------------------------------------------------------------




--------------------------------------- Iteration      1(  15)  ---------------------------------------


    POTLOK:  cpu time    0.6522: real time    0.6519
    SETDIJ:  cpu time    0.0111: real time    0.0111
     EDDAV:  cpu time    0.4211: real time    0.4210
       DOS:  cpu time    0.0003: real time    0.0003
    CHARGE:  cpu time    0.1838: real time    0.1837
    MIXING:  cpu time    0.0216: real time    0.0216
    --------------------------------------------
      LOOP:  cpu time    1.2901: real time    1.2896

 eigenvalue-minimisations  :    48
 total energy-change (2. order) :-0.7763855E-04  (-0.1790083E-06)
 number of electron       8.0000054 magnetization       0.0000000
 augmentation part        0.1010505 magnetization       0.0000001

 Broyden mixing:
  rms(total) = 0.79863E-04    rms(broyden)= 0.79860E-04
  rms(prec ) = 0.12263E-03
  weight for this iteration     100.00

 eigenvalues of (default mixing * dielectric matrix)
  average eigenvalue GAMMA=   2.5993
  8.2650  5.1044  3.0018  3.0018  2.5182  1.0933  0.9360  0.7623  0.6707  0.6389

 Free energy of the ion-electron system (eV)
  ---------------------------------------------------
  alpha Z        PSCENC =         0.05774619
  Ewald energy   TEWEN  =        67.28507057
  -Hartree energ DENC   =      -130.68813233
  -exchange      EXHF   =         0.00000000
  -V(xc)+E(xc)   XCENC  =        17.33600235
  PAW double counting   =        30.03592355      -30.10679670
  entropy T*S    EENTRO =        -0.22567583
  eigenvalues    EBANDS =       -69.95684846
  atomic energy  EATOM  =        99.56620307
  Solvation  Ediel_sol  =         0.00000000
  ---------------------------------------------------
  free energy    TOTEN  =       -16.69650758 eV

  energy without entropy =      -16.47083175  energy(sigma->0) =      -16.58366967


--------------------------------------------------------------------------------------------------------




--------------------------------------- Iteration      1(  16)  ---------------------------------------


    POTLOK:  cpu time    0.6573: real time    0.6571
    SETDIJ:  cpu time    0.0112: real time    0.0112
     EDDAV:  cpu time    0.4170: real time    0.4579
       DOS:  cpu time    0.0003: real time    0.0003
    CHARGE:  cpu time    0.1820: real time    0.1819
    MIXING:  cpu time    0.0228: real time    0.0228
    --------------------------------------------
      LOOP:  cpu time    1.2906: real time    1.3311

 eigenvalue-minimisations  :    48
 total energy-change (2. order) :-0.1478993E-04  (-0.9431923E-08)
 number of electron       8.0000054 magnetization       0.0000000
 augmentation part        0.1010501 magnetization       0.0000000

 Broyden mixing:
  rms(total) = 0.54966E-04    rms(broyden)= 0.54965E-04
  rms(prec ) = 0.86911E-04
  weight for this iteration     100.00

 eigenvalues of (default mixing * dielectric matrix)
  average eigenvalue GAMMA=   2.6175
  8.7138  5.2673  3.1952  3.0482  2.5195  2.0150  0.9916  0.9916  0.7408  0.6743
  0.6348

 Free energy of the ion-electron system (eV)
  ---------------------------------------------------
  alpha Z        PSCENC =         0.05774619
  Ewald energy   TEWEN  =        67.28507057
  -Hartree energ DENC   =      -130.69021719
  -exchange      EXHF   =         0.00000000
  -V(xc)+E(xc)   XCENC  =        17.33614619
  PAW double counting   =        30.03625969      -30.10713370
  entropy T*S    EENTRO =        -0.22567583
  eigenvalues    EBANDS =       -69.95492136
  atomic energy  EATOM  =        99.56620307
  Solvation  Ediel_sol  =         0.00000000
  ---------------------------------------------------
  free energy    TOTEN  =       -16.69652237 eV

  energy without entropy =      -16.47084654  energy(sigma->0) =      -16.58368446


--------------------------------------------------------------------------------------------------------




--------------------------------------- Iteration      1(  17)  ---------------------------------------


    POTLOK:  cpu time    0.6494: real time    0.6491
    SETDIJ:  cpu time    0.0111: real time    0.0111
     EDDAV:  cpu time    0.4179: real time    0.4177
       DOS:  cpu time    0.0003: real time    0.0003
    CHARGE:  cpu time    0.1855: real time    0.1855
    MIXING:  cpu time    0.0252: real time    0.0252
    --------------------------------------------
      LOOP:  cpu time    1.2894: real time    1.2888

 eigenvalue-minimisations  :    48
 total energy-change (2. order) :-0.2875122E-04  (-0.6127651E-07)
 number of electron       8.0000054 magnetization       0.0000000
 augmentation part        0.1010495 magnetization       0.0000000

 Broyden mixing:
  rms(total) = 0.12803E-04    rms(broyden)= 0.12801E-04
  rms(prec ) = 0.21367E-04
  weight for this iteration     100.00

 eigenvalues of (default mixing * dielectric matrix)
  average eigenvalue GAMMA=   2.6458
  9.3140  5.5264  3.9714  2.8240  2.8240  2.5079  1.0234  0.9781  0.7815  0.7004
  0.6318  0.6667

 Free energy of the ion-electron system (eV)
  ---------------------------------------------------
  alpha Z        PSCENC =         0.05774619
  Ewald energy   TEWEN  =        67.28507057
  -Hartree energ DENC   =      -130.69343553
  -exchange      EXHF   =         0.00000000
  -V(xc)+E(xc)   XCENC  =        17.33641592
  PAW double counting   =        30.03193585      -30.10280623
  entropy T*S    EENTRO =        -0.22567583
  eigenvalues    EBANDS =       -69.95200514
  atomic energy  EATOM  =        99.56620307
  Solvation  Ediel_sol  =         0.00000000
  ---------------------------------------------------
  free energy    TOTEN  =       -16.69655113 eV

  energy without entropy =      -16.47087529  energy(sigma->0) =      -16.58371321


--------------------------------------------------------------------------------------------------------




--------------------------------------- Iteration      1(  18)  ---------------------------------------


    POTLOK:  cpu time    0.6544: real time    0.6541
    SETDIJ:  cpu time    0.0109: real time    0.0109
     EDDAV:  cpu time    0.4158: real time    0.4155
       DOS:  cpu time    0.0003: real time    0.0003
    CHARGE:  cpu time    0.1838: real time    0.1837
    MIXING:  cpu time    0.0256: real time    0.0256
    --------------------------------------------
      LOOP:  cpu time    1.2907: real time    1.2901

 eigenvalue-minimisations  :    48
 total energy-change (2. order) :-0.1228649E-05  (-0.1639315E-08)
 number of electron       8.0000054 magnetization       0.0000000
 augmentation part        0.1010494 magnetization      -0.0000000

 Broyden mixing:
  rms(total) = 0.84642E-05    rms(broyden)= 0.84630E-05
  rms(prec ) = 0.16591E-04
  weight for this iteration     100.00

 eigenvalues of (default mixing * dielectric matrix)
  average eigenvalue GAMMA=   2.5439
  9.3824  5.5666  4.0582  2.8412  2.8412  2.5018  1.1349  0.9993  0.9993  0.7631
  0.6924  0.6592  0.6310

 Free energy of the ion-electron system (eV)
  ---------------------------------------------------
  alpha Z        PSCENC =         0.05774619
  Ewald energy   TEWEN  =        67.28507057
  -Hartree energ DENC   =      -130.69363341
  -exchange      EXHF   =         0.00000000
  -V(xc)+E(xc)   XCENC  =        17.33643516
  PAW double counting   =        30.03199566      -30.10286572
  entropy T*S    EENTRO =        -0.22567583
  eigenvalues    EBANDS =       -69.95182805
  atomic energy  EATOM  =        99.56620307
  Solvation  Ediel_sol  =         0.00000000
  ---------------------------------------------------
  free energy    TOTEN  =       -16.69655235 eV

  energy without entropy =      -16.47087652  energy(sigma->0) =      -16.58371444


--------------------------------------------------------------------------------------------------------




--------------------------------------- Iteration      1(  19)  ---------------------------------------


    POTLOK:  cpu time    0.6510: real time    0.6507
    SETDIJ:  cpu time    0.0113: real time    0.0113
     EDDAV:  cpu time    0.4326: real time    0.4324
       DOS:  cpu time    0.0003: real time    0.0003
    CHARGE:  cpu time    0.1841: real time    0.1840
    MIXING:  cpu time    0.0290: real time    0.0290
    --------------------------------------------
      LOOP:  cpu time    1.3085: real time    1.3103

 eigenvalue-minimisations  :    48
 total energy-change (2. order) :-0.2134739E-05  (-0.1269135E-08)
 number of electron       8.0000054 magnetization       0.0000000
 augmentation part        0.1010493 magnetization      -0.0000000

 Broyden mixing:
  rms(total) = 0.49581E-05    rms(broyden)= 0.49576E-05
  rms(prec ) = 0.93718E-05
  weight for this iteration     100.00

 eigenvalues of (default mixing * dielectric matrix)
  average eigenvalue GAMMA=   2.5726
  9.4460  5.6539  4.1834  3.0312  3.0312  2.5682  2.5253  0.9895  0.9895  0.8750
  0.7534  0.6837  0.6298  0.6562

 Free energy of the ion-electron system (eV)
  ---------------------------------------------------
  alpha Z        PSCENC =         0.05774619
  Ewald energy   TEWEN  =        67.28507057
  -Hartree energ DENC   =      -130.69359928
  -exchange      EXHF   =         0.00000000
  -V(xc)+E(xc)   XCENC  =        17.33642101
  PAW double counting   =        30.03245675      -30.10332676
  entropy T*S    EENTRO =        -0.22567583
  eigenvalues    EBANDS =       -69.95185021
  atomic energy  EATOM  =        99.56620307
  Solvation  Ediel_sol  =         0.00000000
  ---------------------------------------------------
  free energy    TOTEN  =       -16.69655449 eV

  energy without entropy =      -16.47087866  energy(sigma->0) =      -16.58371657


--------------------------------------------------------------------------------------------------------




--------------------------------------- Iteration      1(  20)  ---------------------------------------


    POTLOK:  cpu time    0.6596: real time    0.6619
    SETDIJ:  cpu time    0.0112: real time    0.0112
     EDDAV:  cpu time    0.4170: real time    0.4169
       DOS:  cpu time    0.0003: real time    0.0003
    CHARGE:  cpu time    0.1840: real time    0.1839
    MIXING:  cpu time    0.0287: real time    0.0287
    --------------------------------------------
      LOOP:  cpu time    1.3007: real time    1.3003

 eigenvalue-minimisations  :    48
 total energy-change (2. order) :-0.1140641E-05  (-0.8051910E-09)
 number of electron       8.0000054 magnetization       0.0000000
 augmentation part        0.1010493 magnetization       0.0000000

 Broyden mixing:
  rms(total) = 0.23964E-05    rms(broyden)= 0.23964E-05
  rms(prec ) = 0.50618E-05
  weight for this iteration     100.00

 eigenvalues of (default mixing * dielectric matrix)
  average eigenvalue GAMMA=   2.5222
  9.4565  5.7382  4.4350  3.6045  2.8036  2.8036  2.4999  1.0241  0.9944  0.9944
  0.7904  0.7263  0.6802  0.6291  0.6519

 Free energy of the ion-electron system (eV)
  ---------------------------------------------------
  alpha Z        PSCENC =         0.05774619
  Ewald energy   TEWEN  =        67.28507057
  -Hartree energ DENC   =      -130.69349040
  -exchange      EXHF   =         0.00000000
  -V(xc)+E(xc)   XCENC  =        17.33639837
  PAW double counting   =        30.03241935      -30.10328950
  entropy T*S    EENTRO =        -0.22567583
  eigenvalues    EBANDS =       -69.95193745
  atomic energy  EATOM  =        99.56620307
  Solvation  Ediel_sol  =         0.00000000
  ---------------------------------------------------
  free energy    TOTEN  =       -16.69655563 eV

  energy without entropy =      -16.47087980  energy(sigma->0) =      -16.58371771


--------------------------------------------------------------------------------------------------------




--------------------------------------- Iteration      1(  21)  ---------------------------------------


    POTLOK:  cpu time    0.6580: real time    0.6579
    SETDIJ:  cpu time    0.0111: real time    0.0111
     EDDAV:  cpu time    0.4167: real time    0.4166
       DOS:  cpu time    0.0003: real time    0.0003
    --------------------------------------------
      LOOP:  cpu time    1.0861: real time    1.0858

 eigenvalue-minimisations  :    48
 total energy-change (2. order) :-0.2370930E-06  (-0.6329068E-10)
 number of electron       8.0000054 magnetization       0.0000000
 augmentation part        0.1010493 magnetization       0.0000000

 Free energy of the ion-electron system (eV)
  ---------------------------------------------------
  alpha Z        PSCENC =         0.05774619
  Ewald energy   TEWEN  =        67.28507057
  -Hartree energ DENC   =      -130.69353224
  -exchange      EXHF   =         0.00000000
  -V(xc)+E(xc)   XCENC  =        17.33639857
  PAW double counting   =        30.03230596      -30.10317612
  entropy T*S    EENTRO =        -0.22567583
  eigenvalues    EBANDS =       -69.95189604
  atomic energy  EATOM  =        99.56620307
  Solvation  Ediel_sol  =         0.00000000
  ---------------------------------------------------
  free energy    TOTEN  =       -16.69655587 eV

  energy without entropy =      -16.47088003  energy(sigma->0) =      -16.58371795


--------------------------------------------------------------------------------------------------------




 average (electrostatic) potential at core
  the test charge radii are     0.5201
  (the norm of the test charge is              1.0001)
       1 -41.7152       2 -41.7164       3 -41.7152       4 -41.7164       5 -41.7152
       6 -41.7164       7 -41.7152       8 -41.7164
 
 
 
 E-fermi :  -6.2858     XC(G=0):  -0.4893     alpha+bet : -0.0818


 spin component 1

 k-point     1 :       0.0000    0.0000    0.0000
  band No.  band energies     occupation 
      1     -10.2274      1.00000
      2      -9.2314      1.00000
      3      -9.2314      1.00000
      4      -6.2858      0.50002
      5      -6.2858      0.49998
      6      -1.6345      0.00000
      7      -1.6345      0.00000
      8      -0.1651      0.00000
      9      -0.1651      0.00000
     10      -0.1186      0.00000
     11       0.5997      0.00000
     12       0.6029      0.00000

 spin component 2

 k-point     1 :       0.0000    0.0000    0.0000
  band No.  band energies     occupation 
      1     -10.2274      1.00000
      2      -9.2314      1.00000
      3      -9.2314      1.00000
      4      -6.2858      0.50002
      5      -6.2858      0.49998
      6      -1.6345      0.00000
      7      -1.6345      0.00000
      8      -0.1650      0.00000
      9      -0.1650      0.00000
     10      -0.1186      0.00000
     11       0.5995      0.00000
     12       0.6034      0.00000


--------------------------------------------------------------------------------------------------------


 soft charge-density along one line, spin component           1
         0         1         2         3         4         5         6         7         8         9
 total charge-density along one line
 
 soft charge-density along one line, spin component           2
         0         1         2         3         4         5         6         7         8         9
 total charge-density along one line
 
 pseudopotential strength for first ion, spin component:           1
 -2.356  -4.061   0.000  -0.000   0.000
 -4.061  -6.913   0.000  -0.000   0.000
  0.000   0.000  -0.348   0.000   0.000
 -0.000  -0.000   0.000  -0.348   0.000
  0.000   0.000   0.000   0.000  -0.348
 pseudopotential strength for first ion, spin component:           2
 -2.356  -4.061   0.000  -0.000   0.000
 -4.061  -6.913   0.000  -0.000   0.000
  0.000   0.000  -0.348   0.000   0.000
 -0.000  -0.000   0.000  -0.348   0.000
  0.000   0.000   0.000   0.000  -0.348
 total augmentation occupancy for first ion, spin component:           1
  2.071  -0.362   0.000   0.000   0.000
 -0.362   0.066   0.000   0.000  -0.000
  0.000   0.000   0.000   0.000   0.000
  0.000   0.000   0.000   0.006  -0.000
  0.000  -0.000   0.000  -0.000   0.000
 total augmentation occupancy for first ion, spin component:           2
  0.000   0.000   0.000   0.000  -0.000
  0.000  -0.000   0.000   0.000  -0.000
  0.000   0.000   0.000  -0.000   0.000
  0.000   0.000  -0.000   0.000   0.000
 -0.000  -0.000   0.000   0.000   0.000


------------------------ aborting loop because EDIFF is reached ----------------------------------------


    CHARGE:  cpu time    0.1764: real time    0.1764
    FORLOC:  cpu time    0.0257: real time    0.0257
    FORNL :  cpu time    0.0551: real time    0.0551
    STRESS:  cpu time    0.2168: real time    0.2168
    FORHAR:  cpu time    0.0644: real time    0.0644
    MIXING:  cpu time    0.0305: real time    0.0305
    OFIELD:  cpu time    0.0001: real time    0.0001

  FORCE on cell =-STRESS in cart. coord.  units (eV):
  Direction    XX          YY          ZZ          XY          YZ          ZX
  --------------------------------------------------------------------------------------
  Alpha Z     0.05775     0.05775     0.05775
  Ewald     -38.39944   -38.39944   144.08392     0.00000     0.00000     0.00000
  Hartree     0.50293     0.50293   129.68777    -0.00000    -0.00000    -0.00000
  E(xc)     -19.69775   -19.69775   -17.76783     0.00000     0.00000    -0.00000
  Local       5.71130     5.71130  -301.15414     0.00000    -0.00000    -0.00000
  n-local   -14.09761   -14.09761   -14.82471     0.00000    -0.00000     0.00000
  augment     0.65089     0.65089     0.64205     0.00000     0.00000     0.00000
  Kinetic    64.35766    64.35766    37.13161     0.00000    -0.00000    -0.00000
  Fock        0.00000     0.00000     0.00000     0.00000     0.00000     0.00000
  -------------------------------------------------------------------------------------
  Total      -0.91426    -0.91426   -22.14358    -0.00000    -0.00000    -0.00000
  in kB      -0.54252    -0.54252   -13.13998    -0.00000    -0.00000    -0.00000
  external pressure =       -4.74 kB  Pullay stress =        0.00 kB


 VOLUME and BASIS-vectors are now :
 -----------------------------------------------------------------------------
  energy-cutoff  :      300.00
  volume of cell :     2700.00
      direct lattice vectors                 reciprocal lattice vectors
    15.000000000  0.000000000  0.000000000     0.066666667 -0.000000000  0.000000000
     0.000000000 15.000000000  0.000000000     0.000000000  0.066666667  0.000000000
     0.000000000  0.000000000 12.000000000    -0.000000000 -0.000000000  0.083333333

  length of vectors
    15.000000000 15.000000000 12.000000000     0.066666667  0.066666667  0.083333333


 FORCES acting on ions
    electron-ion (+dipol)            ewald-force                    non-local-force                 convergence-correction
 -----------------------------------------------------------------------------------------------
   0.123E-16 -.117E-16 -.643E-16   0.951E-19 -.115E-18 -.178E-14   -.897E-27 0.909E-27 0.000E+00   -.223E-15 -.249E-15 0.551E-16
   -.132E-17 -.232E-16 0.171E-14   0.224E-18 0.515E-18 0.000E+00   0.208E-26 0.101E-26 -.732E-24   -.220E-15 -.272E-15 -.477E-15
   -.293E-17 -.300E-16 0.361E-14   -.393E-18 0.237E-18 0.278E-15   0.122E-26 0.808E-27 0.000E+00   -.203E-15 -.274E-15 -.240E-15
   0.884E-17 -.137E-16 0.491E-14   -.257E-18 -.284E-18 0.631E-15   -.933E-27 0.909E-27 -.575E-23   -.210E-15 -.264E-15 0.324E-15
   0.117E-16 -.144E-16 0.673E-14   -.332E-18 -.799E-19 0.611E-15   -.752E-28 -.303E-27 0.000E+00   -.215E-15 -.263E-15 0.162E-16
   -.235E-17 -.209E-16 0.816E-14   -.197E-18 -.595E-18 0.222E-15   0.609E-27 0.505E-27 0.621E-23   -.213E-15 -.263E-15 -.182E-15
   0.747E-18 -.261E-16 0.105E-13   -.813E-18 -.879E-18 0.000E+00   0.165E-27 0.505E-28 0.000E+00   -.207E-15 -.265E-15 0.135E-16
   0.603E-17 -.127E-16 0.111E-13   -.684E-18 -.256E-18 0.178E-14   -.114E-26 0.131E-26 -.810E-24   -.215E-15 -.254E-15 0.546E-15
 -----------------------------------------------------------------------------------------------
   0.331E-16 -.153E-15 0.466E-13   -.236E-17 -.146E-17 0.174E-14   0.103E-26 0.520E-26 -.109E-23   -.171E-14 -.210E-14 0.551E-16
 
 
 POSITION                                       TOTAL-FORCE (eV/Angst)
 -----------------------------------------------------------------------------------
      0.00000      0.00000      0.00000        -0.000000      0.000000      0.000000
      0.00000      0.00000      1.50000         0.000000      0.000000      0.000000
      0.00000      0.00000      3.00000         0.000000      0.000000     -0.000000
      0.00000      0.00000      4.50000        -0.000000     -0.000000      0.000000
      0.00000      0.00000      6.00000         0.000000     -0.000000      0.000000
      0.00000      0.00000      7.50000        -0.000000      0.000000     -0.000000
      0.00000      0.00000      9.00000        -0.000000     -0.000000      0.000000
      0.00000      0.00000     10.50000         0.000000     -0.000000      0.000000
 -----------------------------------------------------------------------------------
    total drift:                               -0.000000     -0.000000      0.000000


--------------------------------------------------------------------------------------------------------



  FREE ENERGIE OF THE ION-ELECTRON SYSTEM (eV)
  ---------------------------------------------------
  free  energy   TOTEN  =       -16.69655587 eV

  energy  without entropy=      -16.47088003  energy(sigma->0) =      -16.58371795
 


--------------------------------------------------------------------------------------------------------


    POTLOK:  cpu time    0.6803: real time    0.6802


--------------------------------------------------------------------------------------------------------


     LOOP+:  cpu time   25.3554: real time   25.3925
    4ORBIT:  cpu time    0.0000: real time    0.0000

 total amount of memory used by VASP MPI-rank0   104550. kBytes
=======================================================================

   base      :      30000. kBytes
   nonl-proj :       5328. kBytes
   fftplans  :      16020. kBytes
   grid      :      50135. kBytes
   one-center:         19. kBytes
   wavefun   :       3048. kBytes
 
  
  
 General timing and accounting informations for this job:
 ========================================================
  
                  Total CPU time used (sec):       26.254
                            User time (sec):       25.147
                          System time (sec):        1.107
                         Elapsed time (sec):       26.635
  
                   Maximum memory used (kb):      280868.
                   Average memory used (kb):           0.
  
                          Minor page faults:       325015
                          Major page faults:            0
                 Voluntary context switches:         1069
