   8   8   0   0
  0.6300000E+03  0.1500000E-08  0.1500000E-08  0.2240000E-08  0.5000000E-15
  1.000000000000000E-004
  CAR 
 unknown system                          
      2.16362685     -9.42219472  301     -6.68513871      1.00000000
     -9.422  0.0000E+00  0.0000E+00  0.0000E+00  0.0000E+00
     -9.384  0.0000E+00  0.0000E+00  0.0000E+00  0.0000E+00
     -9.345  0.0000E+00  0.0000E+00  0.0000E+00  0.0000E+00
     -9.306  0.0000E+00  0.0000E+00  0.0000E+00  0.0000E+00
     -9.268  0.0000E+00  0.0000E+00  0.0000E+00  0.0000E+00
     -9.229  0.0000E+00  0.0000E+00  0.0000E+00  0.0000E+00
     -9.190  0.0000E+00  0.0000E+00  0.0000E+00  0.0000E+00
     -9.152  0.0000E+00  0.0000E+00  0.0000E+00  0.0000E+00
     -9.113  0.0000E+00  0.0000E+00  0.0000E+00  0.0000E+00
     -9.075  0.0000E+00  0.0000E+00  0.0000E+00  0.0000E+00
     -9.036  0.0000E+00  0.0000E+00  0.0000E+00  0.0000E+00
     -8.997  0.0000E+00  0.0000E+00  0.0000E+00  0.0000E+00
     -8.959  0.0000E+00  0.0000E+00  0.0000E+00  0.0000E+00
     -8.920  0.0000E+00  0.0000E+00  0.0000E+00  0.0000E+00
     -8.882  0.0000E+00  0.0000E+00  0.0000E+00  0.0000E+00
     -8.843  0.0000E+00  0.0000E+00  0.0000E+00  0.0000E+00
     -8.804  0.0000E+00  0.0000E+00  0.0000E+00  0.0000E+00
     -8.766  0.0000E+00  0.0000E+00  0.0000E+00  0.0000E+00
     -8.727  0.0000E+00  0.0000E+00  0.0000E+00  0.0000E+00
     -8.688  0.0000E+00  0.0000E+00  0.0000E+00  0.0000E+00
     -8.650  0.0000E+00  0.0000E+00  0.0000E+00  0.0000E+00
     -8.611  0.0000E+00  0.0000E+00  0.0000E+00  0.0000E+00
     -8.573  0.1150E-13  0.1150E-13  0.4441E-15  0.4441E-15
     -8.534  0.8624E-13  0.8624E-13  0.3775E-14  0.3775E-14
     -8.495  0.7417E-12  0.7417E-12  0.3242E-13  0.3242E-13
     -8.457  0.5819E-11  0.5819E-11  0.2571E-12  0.2571E-12
     -8.418  0.4239E-10  0.4239E-10  0.1894E-11  0.1894E-11
     -8.379  0.2868E-09  0.2868E-09  0.1297E-10  0.1297E-10
     -8.341  0.1802E-08  0.1802E-08  0.8255E-10  0.8255E-10
     -8.302  0.1051E-07  0.1051E-07  0.4884E-09  0.4884E-09
     -8.264  0.5691E-07  0.5691E-07  0.2686E-08  0.2686E-08
     -8.225  0.2862E-06  0.2862E-06  0.1374E-07  0.1374E-07
     -8.186  0.1336E-05  0.1336E-05  0.6535E-07  0.6535E-07
     -8.148  0.5795E-05  0.5795E-05  0.2891E-06  0.2891E-06
     -8.109  0.2333E-04  0.2333E-04  0.1190E-05  0.1190E-05
     -8.071  0.8724E-04  0.8724E-04  0.4559E-05  0.4559E-05
     -8.032  0.3029E-03  0.3029E-03  0.1626E-04  0.1626E-04
     -7.993  0.9769E-03  0.9769E-03  0.5398E-04  0.5398E-04
     -7.955  0.2926E-02  0.2926E-02  0.1670E-03  0.1670E-03
     -7.916  0.8143E-02  0.8143E-02  0.4815E-03  0.4815E-03
     -7.877  0.2106E-01  0.2106E-01  0.1295E-02  0.1295E-02
     -7.839  0.5062E-01  0.5062E-01  0.3249E-02  0.3249E-02
     -7.800  0.1131E+00  0.1131E+00  0.7619E-02  0.7619E-02
     -7.762  0.2353E+00  0.2353E+00  0.1671E-01  0.1671E-01
     -7.723  0.4560E+00  0.4560E+00  0.3432E-01  0.3432E-01
     -7.684  0.8241E+00  0.8241E+00  0.6615E-01  0.6615E-01
     -7.646  0.1392E+01  0.1392E+01  0.1199E+00  0.1199E+00
     -7.607  0.2202E+01  0.2202E+01  0.2050E+00  0.2050E+00
     -7.568  0.3275E+01  0.3275E+01  0.3314E+00  0.3314E+00
     -7.530  0.4598E+01  0.4598E+01  0.5090E+00  0.5090E+00
     -7.491  0.6121E+01  0.6121E+01  0.7454E+00  0.7454E+00
     -7.453  0.7769E+01  0.7769E+01  0.1045E+01  0.1045E+01
     -7.414  0.9444E+01  0.9444E+01  0.1410E+01  0.1410E+01
     -7.375  0.1103E+02  0.1103E+02  0.1836E+01  0.1836E+01
     -7.337  0.1240E+02  0.1240E+02  0.2315E+01  0.2315E+01
     -7.298  0.1339E+02  0.1339E+02  0.2832E+01  0.2832E+01
     -7.260  0.1385E+02  0.1385E+02  0.3367E+01  0.3367E+01
     -7.221  0.1366E+02  0.1366E+02  0.3894E+01  0.3894E+01
     -7.182  0.1279E+02  0.1279E+02  0.4388E+01  0.4388E+01
     -7.144  0.1131E+02  0.1131E+02  0.4825E+01  0.4825E+01
     -7.105  0.9450E+01  0.9450E+01  0.5190E+01  0.5190E+01
     -7.066  0.7483E+01  0.7483E+01  0.5479E+01  0.5479E+01
     -7.028  0.5719E+01  0.5719E+01  0.5700E+01  0.5700E+01
     -6.989  0.4419E+01  0.4419E+01  0.5871E+01  0.5871E+01
     -6.951  0.3762E+01  0.3762E+01  0.6016E+01  0.6016E+01
     -6.912  0.3827E+01  0.3827E+01  0.6164E+01  0.6164E+01
     -6.873  0.4587E+01  0.4587E+01  0.6341E+01  0.6341E+01
     -6.835  0.5908E+01  0.5908E+01  0.6569E+01  0.6569E+01
     -6.796  0.7555E+01  0.7555E+01  0.6861E+01  0.6861E+01
     -6.757  0.9208E+01  0.9208E+01  0.7217E+01  0.7217E+01
     -6.719  0.1052E+02  0.1052E+02  0.7623E+01  0.7623E+01
     -6.680  0.1120E+02  0.1120E+02  0.8056E+01  0.8056E+01
     -6.642  0.1109E+02  0.1109E+02  0.8484E+01  0.8484E+01
     -6.603  0.1020E+02  0.1020E+02  0.8878E+01  0.8878E+01
     -6.564  0.8713E+01  0.8713E+01  0.9214E+01  0.9214E+01
     -6.526  0.6917E+01  0.6917E+01  0.9481E+01  0.9481E+01
     -6.487  0.5113E+01  0.5113E+01  0.9679E+01  0.9679E+01
     -6.449  0.3545E+01  0.3545E+01  0.9816E+01  0.9816E+01
     -6.410  0.2363E+01  0.2363E+01  0.9907E+01  0.9907E+01
     -6.371  0.1632E+01  0.1632E+01  0.9970E+01  0.9970E+01
     -6.333  0.1368E+01  0.1368E+01  0.1002E+02  0.1002E+02
     -6.294  0.1571E+01  0.1571E+01  0.1008E+02  0.1008E+02
     -6.255  0.2241E+01  0.2241E+01  0.1017E+02  0.1017E+02
     -6.217  0.3368E+01  0.3368E+01  0.1030E+02  0.1030E+02
     -6.178  0.4896E+01  0.4896E+01  0.1049E+02  0.1049E+02
     -6.140  0.6690E+01  0.6690E+01  0.1075E+02  0.1075E+02
     -6.101  0.8527E+01  0.8527E+01  0.1108E+02  0.1108E+02
     -6.062  0.1012E+02  0.1012E+02  0.1147E+02  0.1147E+02
     -6.024  0.1120E+02  0.1120E+02  0.1190E+02  0.1190E+02
     -5.985  0.1159E+02  0.1159E+02  0.1235E+02  0.1235E+02
     -5.946  0.1130E+02  0.1130E+02  0.1278E+02  0.1278E+02
     -5.908  0.1047E+02  0.1047E+02  0.1319E+02  0.1319E+02
     -5.869  0.9404E+01  0.9404E+01  0.1355E+02  0.1355E+02
     -5.831  0.8370E+01  0.8370E+01  0.1388E+02  0.1388E+02
     -5.792  0.7572E+01  0.7572E+01  0.1417E+02  0.1417E+02
     -5.753  0.7059E+01  0.7059E+01  0.1444E+02  0.1444E+02
     -5.715  0.6745E+01  0.6745E+01  0.1470E+02  0.1470E+02
     -5.676  0.6465E+01  0.6465E+01  0.1495E+02  0.1495E+02
     -5.637  0.6061E+01  0.6061E+01  0.1518E+02  0.1518E+02
     -5.599  0.5446E+01  0.5446E+01  0.1539E+02  0.1539E+02
     -5.560  0.4624E+01  0.4624E+01  0.1557E+02  0.1557E+02
     -5.522  0.3682E+01  0.3682E+01  0.1572E+02  0.1572E+02
     -5.483  0.2736E+01  0.2736E+01  0.1582E+02  0.1582E+02
     -5.444  0.1893E+01  0.1893E+01  0.1589E+02  0.1589E+02
     -5.406  0.1218E+01  0.1218E+01  0.1594E+02  0.1594E+02
     -5.367  0.7283E+00  0.7283E+00  0.1597E+02  0.1597E+02
     -5.329  0.4045E+00  0.4045E+00  0.1599E+02  0.1599E+02
     -5.290  0.2087E+00  0.2087E+00  0.1599E+02  0.1599E+02
     -5.251  0.9995E-01  0.9995E-01  0.1600E+02  0.1600E+02
     -5.213  0.4446E-01  0.4446E-01  0.1600E+02  0.1600E+02
     -5.174  0.1837E-01  0.1837E-01  0.1600E+02  0.1600E+02
     -5.135  0.7044E-02  0.7044E-02  0.1600E+02  0.1600E+02
     -5.097  0.2509E-02  0.2509E-02  0.1600E+02  0.1600E+02
     -5.058  0.8297E-03  0.8297E-03  0.1600E+02  0.1600E+02
     -5.020  0.2548E-03  0.2548E-03  0.1600E+02  0.1600E+02
     -4.981  0.7264E-04  0.7264E-04  0.1600E+02  0.1600E+02
     -4.942  0.1923E-04  0.1923E-04  0.1600E+02  0.1600E+02
     -4.904  0.4728E-05  0.4728E-05  0.1600E+02  0.1600E+02
     -4.865  0.1079E-05  0.1079E-05  0.1600E+02  0.1600E+02
     -4.826  0.2287E-06  0.2287E-06  0.1600E+02  0.1600E+02
     -4.788  0.4501E-07  0.4501E-07  0.1600E+02  0.1600E+02
     -4.749  0.8225E-08  0.8225E-08  0.1600E+02  0.1600E+02
     -4.711  0.1396E-08  0.1396E-08  0.1600E+02  0.1600E+02
     -4.672  0.2199E-09  0.2199E-09  0.1600E+02  0.1600E+02
     -4.633  0.3216E-10  0.3216E-10  0.1600E+02  0.1600E+02
     -4.595  0.4370E-11  0.4370E-11  0.1600E+02  0.1600E+02
     -4.556  0.5520E-12  0.5520E-12  0.1600E+02  0.1600E+02
     -4.518  0.5750E-13  0.5750E-13  0.1600E+02  0.1600E+02
     -4.479  0.1150E-13  0.1150E-13  0.1600E+02  0.1600E+02
     -4.440  0.0000E+00  0.0000E+00  0.1600E+02  0.1600E+02
     -4.402  0.0000E+00  0.0000E+00  0.1600E+02  0.1600E+02
     -4.363  0.0000E+00  0.0000E+00  0.1600E+02  0.1600E+02
     -4.324  0.0000E+00  0.0000E+00  0.1600E+02  0.1600E+02
     -4.286  0.0000E+00  0.0000E+00  0.1600E+02  0.1600E+02
     -4.247  0.0000E+00  0.0000E+00  0.1600E+02  0.1600E+02
     -4.209  0.0000E+00  0.0000E+00  0.1600E+02  0.1600E+02
     -4.170  0.0000E+00  0.0000E+00  0.1600E+02  0.1600E+02
     -4.131  0.0000E+00  0.0000E+00  0.1600E+02  0.1600E+02
     -4.093  0.0000E+00  0.0000E+00  0.1600E+02  0.1600E+02
     -4.054  0.0000E+00  0.0000E+00  0.1600E+02  0.1600E+02
     -4.015  0.0000E+00  0.0000E+00  0.1600E+02  0.1600E+02
     -3.977  0.0000E+00  0.0000E+00  0.1600E+02  0.1600E+02
     -3.938  0.0000E+00  0.0000E+00  0.1600E+02  0.1600E+02
     -3.900  0.0000E+00  0.0000E+00  0.1600E+02  0.1600E+02
     -3.861  0.0000E+00  0.0000E+00  0.1600E+02  0.1600E+02
     -3.822  0.0000E+00  0.0000E+00  0.1600E+02  0.1600E+02
     -3.784  0.0000E+00  0.0000E+00  0.1600E+02  0.1600E+02
     -3.745  0.0000E+00  0.0000E+00  0.1600E+02  0.1600E+02
     -3.707  0.0000E+00  0.0000E+00  0.1600E+02  0.1600E+02
     -3.668  0.0000E+00  0.0000E+00  0.1600E+02  0.1600E+02
     -3.629  0.0000E+00  0.0000E+00  0.1600E+02  0.1600E+02
     -3.591  0.0000E+00  0.0000E+00  0.1600E+02  0.1600E+02
     -3.552  0.0000E+00  0.0000E+00  0.1600E+02  0.1600E+02
     -3.513  0.0000E+00  0.0000E+00  0.1600E+02  0.1600E+02
     -3.475  0.0000E+00  0.0000E+00  0.1600E+02  0.1600E+02
     -3.436  0.0000E+00  0.0000E+00  0.1600E+02  0.1600E+02
     -3.398  0.0000E+00  0.0000E+00  0.1600E+02  0.1600E+02
     -3.359  0.0000E+00  0.0000E+00  0.1600E+02  0.1600E+02
     -3.320  0.0000E+00  0.0000E+00  0.1600E+02  0.1600E+02
     -3.282  0.0000E+00  0.0000E+00  0.1600E+02  0.1600E+02
     -3.243  0.0000E+00  0.0000E+00  0.1600E+02  0.1600E+02
     -3.204  0.0000E+00  0.0000E+00  0.1600E+02  0.1600E+02
     -3.166  0.0000E+00  0.0000E+00  0.1600E+02  0.1600E+02
     -3.127  0.0000E+00  0.0000E+00  0.1600E+02  0.1600E+02
     -3.089  0.0000E+00  0.0000E+00  0.1600E+02  0.1600E+02
     -3.050  0.0000E+00  0.0000E+00  0.1600E+02  0.1600E+02
     -3.011  0.0000E+00  0.0000E+00  0.1600E+02  0.1600E+02
     -2.973  0.0000E+00  0.0000E+00  0.1600E+02  0.1600E+02
     -2.934  0.0000E+00  0.0000E+00  0.1600E+02  0.1600E+02
     -2.896  0.0000E+00  0.0000E+00  0.1600E+02  0.1600E+02
     -2.857  0.0000E+00  0.0000E+00  0.1600E+02  0.1600E+02
     -2.818  0.0000E+00  0.0000E+00  0.1600E+02  0.1600E+02
     -2.780  0.0000E+00  0.0000E+00  0.1600E+02  0.1600E+02
     -2.741  0.0000E+00  0.0000E+00  0.1600E+02  0.1600E+02
     -2.702  0.0000E+00  0.0000E+00  0.1600E+02  0.1600E+02
     -2.664  0.0000E+00  0.0000E+00  0.1600E+02  0.1600E+02
     -2.625  0.0000E+00  0.0000E+00  0.1600E+02  0.1600E+02
     -2.587  0.0000E+00  0.0000E+00  0.1600E+02  0.1600E+02
     -2.548  0.0000E+00  0.0000E+00  0.1600E+02  0.1600E+02
     -2.509  0.0000E+00  0.0000E+00  0.1600E+02  0.1600E+02
     -2.471  0.0000E+00  0.0000E+00  0.1600E+02  0.1600E+02
     -2.432  0.0000E+00  0.0000E+00  0.1600E+02  0.1600E+02
     -2.393  0.0000E+00  0.0000E+00  0.1600E+02  0.1600E+02
     -2.355  0.0000E+00  0.0000E+00  0.1600E+02  0.1600E+02
     -2.316  0.0000E+00  0.0000E+00  0.1600E+02  0.1600E+02
     -2.278  0.0000E+00  0.0000E+00  0.1600E+02  0.1600E+02
     -2.239  0.0000E+00  0.0000E+00  0.1600E+02  0.1600E+02
     -2.200  0.0000E+00  0.0000E+00  0.1600E+02  0.1600E+02
     -2.162  0.0000E+00  0.0000E+00  0.1600E+02  0.1600E+02
     -2.123  0.0000E+00  0.0000E+00  0.1600E+02  0.1600E+02
     -2.085  0.0000E+00  0.0000E+00  0.1600E+02  0.1600E+02
     -2.046  0.0000E+00  0.0000E+00  0.1600E+02  0.1600E+02
     -2.007  0.0000E+00  0.0000E+00  0.1600E+02  0.1600E+02
     -1.969  0.0000E+00  0.0000E+00  0.1600E+02  0.1600E+02
     -1.930  0.0000E+00  0.0000E+00  0.1600E+02  0.1600E+02
     -1.891  0.0000E+00  0.0000E+00  0.1600E+02  0.1600E+02
     -1.853  0.0000E+00  0.0000E+00  0.1600E+02  0.1600E+02
     -1.814  0.0000E+00  0.0000E+00  0.1600E+02  0.1600E+02
     -1.776  0.0000E+00  0.0000E+00  0.1600E+02  0.1600E+02
     -1.737  0.0000E+00  0.0000E+00  0.1600E+02  0.1600E+02
     -1.698  0.0000E+00  0.0000E+00  0.1600E+02  0.1600E+02
     -1.660  0.0000E+00  0.0000E+00  0.1600E+02  0.1600E+02
     -1.621  0.0000E+00  0.0000E+00  0.1600E+02  0.1600E+02
     -1.582  0.0000E+00  0.0000E+00  0.1600E+02  0.1600E+02
     -1.544  0.0000E+00  0.0000E+00  0.1600E+02  0.1600E+02
     -1.505  0.0000E+00  0.0000E+00  0.1600E+02  0.1600E+02
     -1.467  0.0000E+00  0.0000E+00  0.1600E+02  0.1600E+02
     -1.428  0.0000E+00  0.0000E+00  0.1600E+02  0.1600E+02
     -1.389  0.0000E+00  0.0000E+00  0.1600E+02  0.1600E+02
     -1.351  0.0000E+00  0.0000E+00  0.1600E+02  0.1600E+02
     -1.312  0.0000E+00  0.0000E+00  0.1600E+02  0.1600E+02
     -1.274  0.1437E-13  0.1437E-13  0.1600E+02  0.1600E+02
     -1.235  0.1121E-12  0.1121E-12  0.1600E+02  0.1600E+02
     -1.196  0.9631E-12  0.9631E-12  0.1600E+02  0.1600E+02
     -1.158  0.7506E-11  0.7503E-11  0.1600E+02  0.1600E+02
     -1.119  0.5431E-10  0.5430E-10  0.1600E+02  0.1600E+02
     -1.080  0.3653E-09  0.3652E-09  0.1600E+02  0.1600E+02
     -1.042  0.2283E-08  0.2282E-08  0.1600E+02  0.1600E+02
     -1.003  0.1326E-07  0.1325E-07  0.1600E+02  0.1600E+02
     -0.965  0.7152E-07  0.7150E-07  0.1600E+02  0.1600E+02
     -0.926  0.3586E-06  0.3585E-06  0.1600E+02  0.1600E+02
     -0.887  0.1672E-05  0.1671E-05  0.1600E+02  0.1600E+02
     -0.849  0.7245E-05  0.7243E-05  0.1600E+02  0.1600E+02
     -0.810  0.2920E-04  0.2919E-04  0.1600E+02  0.1600E+02
     -0.771  0.1095E-03  0.1095E-03  0.1600E+02  0.1600E+02
     -0.733  0.3819E-03  0.3818E-03  0.1600E+02  0.1600E+02
     -0.694  0.1240E-02  0.1240E-02  0.1600E+02  0.1600E+02
     -0.656  0.3750E-02  0.3749E-02  0.1600E+02  0.1600E+02
     -0.617  0.1056E-01  0.1056E-01  0.1600E+02  0.1600E+02
     -0.578  0.2773E-01  0.2772E-01  0.1600E+02  0.1600E+02
     -0.540  0.6788E-01  0.6786E-01  0.1600E+02  0.1600E+02
     -0.501  0.1550E+00  0.1550E+00  0.1601E+02  0.1601E+02
     -0.462  0.3305E+00  0.3304E+00  0.1602E+02  0.1602E+02
     -0.424  0.6581E+00  0.6579E+00  0.1605E+02  0.1605E+02
     -0.385  0.1225E+01  0.1224E+01  0.1610E+02  0.1610E+02
     -0.347  0.2131E+01  0.2131E+01  0.1618E+02  0.1618E+02
     -0.308  0.3470E+01  0.3470E+01  0.1631E+02  0.1631E+02
     -0.269  0.5291E+01  0.5290E+01  0.1652E+02  0.1652E+02
     -0.231  0.7560E+01  0.7559E+01  0.1681E+02  0.1681E+02
     -0.192  0.1013E+02  0.1013E+02  0.1720E+02  0.1720E+02
     -0.154  0.1275E+02  0.1275E+02  0.1769E+02  0.1769E+02
     -0.115  0.1509E+02  0.1509E+02  0.1827E+02  0.1827E+02
     -0.076  0.1684E+02  0.1684E+02  0.1893E+02  0.1892E+02
     -0.038  0.1777E+02  0.1777E+02  0.1961E+02  0.1961E+02
      0.001  0.1781E+02  0.1781E+02  0.2030E+02  0.2030E+02
      0.040  0.1704E+02  0.1704E+02  0.2096E+02  0.2096E+02
      0.078  0.1564E+02  0.1565E+02  0.2156E+02  0.2156E+02
      0.117  0.1386E+02  0.1387E+02  0.2210E+02  0.2210E+02
      0.155  0.1191E+02  0.1191E+02  0.2256E+02  0.2256E+02
      0.194  0.9918E+01  0.9920E+01  0.2294E+02  0.2294E+02
      0.233  0.8001E+01  0.8003E+01  0.2325E+02  0.2325E+02
      0.271  0.6222E+01  0.6223E+01  0.2349E+02  0.2349E+02
      0.310  0.4636E+01  0.4636E+01  0.2367E+02  0.2367E+02
      0.349  0.3286E+01  0.3287E+01  0.2380E+02  0.2380E+02
      0.387  0.2204E+01  0.2204E+01  0.2388E+02  0.2388E+02
      0.426  0.1391E+01  0.1391E+01  0.2393E+02  0.2393E+02
      0.464  0.8233E+00  0.8234E+00  0.2397E+02  0.2397E+02
      0.503  0.4555E+00  0.4556E+00  0.2398E+02  0.2398E+02
      0.542  0.2351E+00  0.2351E+00  0.2399E+02  0.2399E+02
      0.580  0.1130E+00  0.1131E+00  0.2400E+02  0.2400E+02
      0.619  0.5058E-01  0.5058E-01  0.2400E+02  0.2400E+02
      0.657  0.2104E-01  0.2105E-01  0.2400E+02  0.2400E+02
      0.696  0.8139E-02  0.8140E-02  0.2400E+02  0.2400E+02
      0.735  0.2925E-02  0.2925E-02  0.2400E+02  0.2400E+02
      0.773  0.9765E-03  0.9767E-03  0.2400E+02  0.2400E+02
      0.812  0.3028E-03  0.3029E-03  0.2400E+02  0.2400E+02
      0.851  0.8721E-04  0.8723E-04  0.2400E+02  0.2400E+02
      0.889  0.2332E-04  0.2333E-04  0.2400E+02  0.2400E+02
      0.928  0.5793E-05  0.5794E-05  0.2400E+02  0.2400E+02
      0.966  0.1336E-05  0.1336E-05  0.2400E+02  0.2400E+02
      1.005  0.2861E-06  0.2862E-06  0.2400E+02  0.2400E+02
      1.044  0.5690E-07  0.5691E-07  0.2400E+02  0.2400E+02
      1.082  0.1051E-07  0.1051E-07  0.2400E+02  0.2400E+02
      1.121  0.1801E-08  0.1802E-08  0.2400E+02  0.2400E+02
      1.160  0.2867E-09  0.2868E-09  0.2400E+02  0.2400E+02
      1.198  0.4237E-10  0.4240E-10  0.2400E+02  0.2400E+02
      1.237  0.5819E-11  0.5819E-11  0.2400E+02  0.2400E+02
      1.275  0.7417E-12  0.7417E-12  0.2400E+02  0.2400E+02
      1.314  0.8624E-13  0.8624E-13  0.2400E+02  0.2400E+02
      1.353  0.1150E-13  0.1150E-13  0.2400E+02  0.2400E+02
      1.391  0.0000E+00  0.0000E+00  0.2400E+02  0.2400E+02
      1.430  0.0000E+00  0.0000E+00  0.2400E+02  0.2400E+02
      1.468  0.0000E+00  0.0000E+00  0.2400E+02  0.2400E+02
      1.507  0.0000E+00  0.0000E+00  0.2400E+02  0.2400E+02
      1.546  0.0000E+00  0.0000E+00  0.2400E+02  0.2400E+02
      1.584  0.0000E+00  0.0000E+00  0.2400E+02  0.2400E+02
      1.623  0.0000E+00  0.0000E+00  0.2400E+02  0.2400E+02
      1.662  0.0000E+00  0.0000E+00  0.2400E+02  0.2400E+02
      1.700  0.0000E+00  0.0000E+00  0.2400E+02  0.2400E+02
      1.739  0.0000E+00  0.0000E+00  0.2400E+02  0.2400E+02
      1.777  0.0000E+00  0.0000E+00  0.2400E+02  0.2400E+02
      1.816  0.0000E+00  0.0000E+00  0.2400E+02  0.2400E+02
      1.855  0.0000E+00  0.0000E+00  0.2400E+02  0.2400E+02
      1.893  0.0000E+00  0.0000E+00  0.2400E+02  0.2400E+02
      1.932  0.0000E+00  0.0000E+00  0.2400E+02  0.2400E+02
      1.971  0.0000E+00  0.0000E+00  0.2400E+02  0.2400E+02
      2.009  0.0000E+00  0.0000E+00  0.2400E+02  0.2400E+02
      2.048  0.0000E+00  0.0000E+00  0.2400E+02  0.2400E+02
      2.086  0.0000E+00  0.0000E+00  0.2400E+02  0.2400E+02
      2.125  0.0000E+00  0.0000E+00  0.2400E+02  0.2400E+02
      2.164  0.0000E+00  0.0000E+00  0.2400E+02  0.2400E+02
