    8    8    1    2
  0.6300000E+03  0.1500000E-08  0.1500000E-08  0.2240000E-08  0.5000000E-15
  1.000000000000000E-004
  CAR 
 unknown system                          
      8      1     12
 
  0.0000000E+00  0.0000000E+00  0.0000000E+00  0.1000000E+01
    1       -7.422195     -7.422195   1.000000   1.000000
    2       -7.225212     -7.225212   0.999933   0.999933
    3       -7.225212     -7.225212   0.999933   0.999933
    4       -6.685162     -6.685162   0.500066   0.500066
    5       -6.685162     -6.685162   0.500066   0.500066
    6       -6.013665     -6.013665   0.000001   0.000001
    7       -6.013665     -6.013665   0.000001   0.000001
    8       -5.673365     -5.673365   0.000000   0.000000
    9       -0.127729     -0.127724   0.000000   0.000000
   10       -0.036018     -0.035978   0.000000   0.000000
   11       -0.036018     -0.035978   0.000000   0.000000
   12        0.163620      0.163627   0.000000   0.000000
