       N       E                     dE             d eps       ncg     rms          rms(c)
DAV:   1     0.182204687477E+02    0.18220E+02   -0.74043E+02    48   0.167E+02
DAV:   2    -0.214578659572E+01   -0.20366E+02   -0.20283E+02    88   0.476E+01
DAV:   3    -0.396566008226E+01   -0.18199E+01   -0.17047E+01    64   0.186E+01
DAV:   4    -0.409463822247E+01   -0.12898E+00   -0.11705E+00    60   0.379E+00
DAV:   5    -0.409642660921E+01   -0.17884E-02   -0.17863E-02    56   0.400E-01    0.125E+00
DAV:   6    -0.409731824563E+01   -0.89164E-03   -0.12294E-02    48   0.496E-01    0.714E-01
DAV:   7    -0.411757673460E+01   -0.20258E-01   -0.24051E-02    48   0.706E-01    0.688E-02
DAV:   8    -0.411926079096E+01   -0.16841E-02   -0.16425E-03    56   0.188E-01    0.345E-02
DAV:   9    -0.411952822157E+01   -0.26743E-03   -0.33281E-05    56   0.310E-02    0.349E-03
DAV:  10    -0.411957675017E+01   -0.48529E-04   -0.27651E-06    56   0.710E-03    0.263E-03
DAV:  11    -0.411965565690E+01   -0.78907E-04   -0.98194E-06    56   0.110E-02    0.156E-03
DAV:  12    -0.411967719511E+01   -0.21538E-04   -0.19829E-06    56   0.470E-03    0.108E-03
DAV:  13    -0.411969014621E+01   -0.12951E-04   -0.18736E-06    48   0.445E-03    0.677E-04
DAV:  14    -0.411969403942E+01   -0.38932E-05   -0.93483E-08    36   0.145E-03    0.295E-04
DAV:  15    -0.411970172987E+01   -0.76905E-05   -0.22475E-07    32   0.150E-03    0.176E-04
DAV:  16    -0.411970576626E+01   -0.40364E-05   -0.19338E-07    32   0.136E-03    0.946E-05
DAV:  17    -0.411970676627E+01   -0.10000E-05   -0.19818E-08    32   0.497E-04    0.626E-05
DAV:  18    -0.411970783005E+01   -0.10638E-05   -0.12187E-08    32   0.468E-04    0.215E-05
DAV:  19    -0.411970792125E+01   -0.91204E-07   -0.94110E-10    36   0.150E-04
   1 F= -.41197079E+01 E0= -.40067917E+01  d E =-.225833E+00  mag=    -0.0000
