<?xml version="1.0" encoding="ISO-8859-1"?>
<modeling>
 <generator>
  <i name="program" type="string">vasp </i>
  <i name="version" type="string">5.4.4.18Apr17-6-g9f103f2a35  </i>
  <i name="subversion" type="string">(build Aug 24 2024 05:40:03) complex            parallel </i>
  <i name="platform" type="string">IFC22_IMPI </i>
  <i name="date" type="string">2024 11 22 </i>
  <i name="time" type="string">21:48:38 </i>
 </generator>
 <incar>
  <i type="string" name="PREC">normal</i>
  <i type="int" name="ISPIN">     2</i>
  <i type="int" name="ICHARG">     2</i>
  <i type="int" name="NELM">   100</i>
  <i name="EDIFF">      0.00000100</i>
  <i type="int" name="NSW">     0</i>
  <i name="ENCUT">    300.00000000</i>
  <i name="NUPDOWN">      0.00000000</i>
  <i type="int" name="ISMEAR">     0</i>
  <i name="SIGMA">      0.20000000</i>
  <i type="logical" name="LWAVE"> F  </i>
  <i type="logical" name="LCHARG"> F  </i>
  <v type="int" name="KPOINT_BSE">    -1     0     0     0</v>
  <i type="int" name="NELM">   100</i>
 </incar>
 <structure name="primitive_cell" >
  <crystal>
   <varray name="basis" >
    <v>      15.00000000       0.00000000       0.00000000 </v>
    <v>       0.00000000      15.00000000       0.00000000 </v>
    <v>       0.00000000       0.00000000       2.80000000 </v>
   </varray>
   <i name="volume">    630.00000000 </i>
   <varray name="rec_basis" >
    <v>       0.06666667      -0.00000000       0.00000000 </v>
    <v>       0.00000000       0.06666667       0.00000000 </v>
    <v>      -0.00000000      -0.00000000       0.35714286 </v>
   </varray>
  </crystal>
  <varray name="positions" >
   <v>       0.00000000       0.00000000       0.00000000 </v>
  </varray>
 </structure>
 <varray name="primitive_index" >
  <v type="int" >        1 </v>
 </varray>
 <kpoints>
  <generation param="Gamma">
   <v type="int" name="divisions">       1        1        1 </v>
   <v name="usershift">      0.00000000       0.00000000       0.00000000 </v>
   <v name="genvec1">      1.00000000       0.00000000       0.00000000 </v>
   <v name="genvec2">      0.00000000       1.00000000       0.00000000 </v>
   <v name="genvec3">      0.00000000      -0.00000000       1.00000000 </v>
   <v name="shift">      0.00000000       0.00000000       0.00000000 </v>
  </generation>
  <varray name="kpointlist" >
   <v>       0.00000000       0.00000000       0.00000000 </v>
  </varray>
  <varray name="weights" >
   <v>       1.00000000 </v>
  </varray>
 </kpoints>
 <parameters>
  <separator name="general" >
   <i type="string" name="SYSTEM">unknown system</i>
   <i type="logical" name="LCOMPAT"> F  </i>
  </separator>
  <separator name="electronic" >
   <i type="string" name="PREC">normal</i>
   <i name="ENMAX">    300.00000000</i>
   <i name="ENAUG">    400.00000000</i>
   <i name="EDIFF">      0.00000100</i>
   <i type="int" name="IALGO">    38</i>
   <i type="int" name="IWAVPR">    10</i>
   <i type="int" name="NBANDS">    12</i>
   <i name="NELECT">      8.00000000</i>
   <i type="int" name="TURBO">     0</i>
   <i type="int" name="IRESTART">     0</i>
   <i type="int" name="NREBOOT">     0</i>
   <i type="int" name="NMIN">     0</i>
   <i name="EREF">      0.00000000</i>
   <separator name="electronic smearing" >
    <i type="int" name="ISMEAR">     0</i>
    <i name="SIGMA">      0.20000000</i>
    <i name="KSPACING">      0.50000000</i>
    <i type="logical" name="KGAMMA"> T  </i>
   </separator>
   <separator name="electronic projectors" >
    <i type="logical" name="LREAL"> F  </i>
    <v name="ROPT">      0.00000000</v>
    <i type="int" name="LMAXPAW">  -100</i>
    <i type="int" name="LMAXMIX">     2</i>
    <i type="logical" name="NLSPLINE"> F  </i>
   </separator>
   <separator name="electronic startup" >
    <i type="int" name="ISTART">     0</i>
    <i type="int" name="ICHARG">     2</i>
    <i type="int" name="INIWAV">     1</i>
   </separator>
   <separator name="electronic spin" >
    <i type="int" name="ISPIN">     2</i>
    <i type="logical" name="LNONCOLLINEAR"> F  </i>
    <v name="MAGMOM">      0.00000000      0.00000000      0.00000000      0.00000000      0.00000000      0.00000000      0.00000000      0.00000000</v>
    <i name="NUPDOWN">      0.00000000</i>
    <i type="logical" name="LSORBIT"> F  </i>
    <v name="SAXIS">      0.00000000      0.00000000      1.00000000</v>
    <i type="logical" name="LSPIRAL"> F  </i>
    <v name="QSPIRAL">      0.00000000      0.00000000      0.00000000</v>
    <i type="logical" name="LZEROZ"> F  </i>
   </separator>
   <separator name="electronic exchange-correlation" >
    <i type="logical" name="LASPH"> F  </i>
    <i type="logical" name="LMETAGGA"> F  </i>
   </separator>
   <separator name="electronic convergence" >
    <i type="int" name="NELM">   100</i>
    <i type="int" name="NELMDL">    -5</i>
    <i type="int" name="NELMIN">     2</i>
    <i name="ENINI">    300.00000000</i>
    <separator name="electronic convergence detail" >
     <i type="logical" name="LDIAG"> T  </i>
     <i type="logical" name="LSUBROT"> F  </i>
     <i name="WEIMIN">      0.00000000</i>
     <i name="EBREAK">      0.00000002</i>
     <i name="DEPER">      0.30000000</i>
     <i type="int" name="NRMM">     4</i>
     <i name="TIME">      0.40000000</i>
    </separator>
   </separator>
   <separator name="electronic mixer" >
    <i name="AMIX">      0.40000000</i>
    <i name="BMIX">      1.00000000</i>
    <i name="AMIN">      0.10000000</i>
    <i name="AMIX_MAG">      1.60000000</i>
    <i name="BMIX_MAG">      1.00000000</i>
    <separator name="electronic mixer details" >
     <i type="int" name="IMIX">     4</i>
     <i type="logical" name="MIXFIRST"> F  </i>
     <i type="int" name="MAXMIX">   -45</i>
     <i name="WC">    100.00000000</i>
     <i type="int" name="INIMIX">     1</i>
     <i type="int" name="MIXPRE">     1</i>
     <i type="int" name="MREMOVE">     5</i>
    </separator>
   </separator>
   <separator name="electronic dipolcorrection" >
    <i type="logical" name="LDIPOL"> F  </i>
    <i type="logical" name="LMONO"> F  </i>
    <i type="int" name="IDIPOL">     0</i>
    <i name="EPSILON">      1.00000000</i>
    <v name="DIPOL">   -100.00000000   -100.00000000   -100.00000000</v>
    <i name="EFIELD">      0.00000000</i>
   </separator>
  </separator>
  <separator name="grids" >
   <i type="int" name="NGX">    64</i>
   <i type="int" name="NGY">    64</i>
   <i type="int" name="NGZ">    96</i>
   <i type="int" name="NGXF">   128</i>
   <i type="int" name="NGYF">   128</i>
   <i type="int" name="NGZF">   192</i>
   <i type="logical" name="ADDGRID"> F  </i>
  </separator>
  <separator name="ionic" >
   <i type="int" name="NSW">     0</i>
   <i type="int" name="IBRION">    -1</i>
   <i type="int" name="MDALGO">     0</i>
   <i type="int" name="ISIF">     2</i>
   <i name="PSTRESS">      0.00000000</i>
   <i name="EDIFFG">      0.00001000</i>
   <i type="int" name="NFREE">     0</i>
   <i name="POTIM">      0.50000000</i>
   <i name="SMASS">     -3.00000000</i>
   <i name="SCALEE">      1.00000000</i>
  </separator>
  <separator name="ionic md" >
   <i name="TEBEG">      0.00010000</i>
   <i name="TEEND">      0.00010000</i>
   <i type="int" name="NBLOCK">     1</i>
   <i type="int" name="KBLOCK">     1</i>
   <i type="int" name="NPACO">   256</i>
   <i name="APACO">     16.00000000</i>
  </separator>
  <separator name="symmetry" >
   <i type="int" name="ISYM">     2</i>
   <i name="SYMPREC">      0.00001000</i>
  </separator>
  <separator name="dos" >
   <i type="int" name="LORBIT">     0</i>
   <v name="RWIGS">     -1.00000000</v>
   <i type="int" name="NEDOS">   301</i>
   <i name="EMIN">     10.00000000</i>
   <i name="EMAX">    -10.00000000</i>
   <i name="EFERMI">      0.00000000</i>
  </separator>
  <separator name="writing" >
   <i type="int" name="NWRITE">     2</i>
   <i type="logical" name="LWAVE"> F  </i>
   <i type="logical" name="LDOWNSAMPLE"> F  </i>
   <i type="logical" name="LCHARG"> F  </i>
   <i type="logical" name="LPARD"> F  </i>
   <i type="logical" name="LVTOT"> F  </i>
   <i type="logical" name="LVHAR"> F  </i>
   <i type="logical" name="LELF"> F  </i>
   <i type="logical" name="LOPTICS"> F  </i>
   <v name="STM">      0.00000000      0.00000000      0.00000000      0.00000000      0.00000000      0.00000000      0.00000000</v>
  </separator>
  <separator name="performance" >
   <i type="int" name="NPAR">     4</i>
   <i type="int" name="NSIM">     4</i>
   <i type="int" name="NBLK">    -1</i>
   <i type="logical" name="LPLANE"> T  </i>
   <i type="logical" name="LSCALAPACK"> T  </i>
   <i type="logical" name="LSCAAWARE"> F  </i>
   <i type="logical" name="LSCALU"> F  </i>
   <i type="logical" name="LASYNC"> F  </i>
   <i type="logical" name="LORBITALREAL"> F  </i>
  </separator>
  <separator name="miscellaneous" >
   <i type="int" name="IDIOT">     3</i>
   <i type="int" name="ISPECIAL">     0</i>
   <i type="logical" name="LMUSIC"> F  </i>
   <v name="POMASS">      1.00000000</v>
   <v name="DARWINR">      0.00000000</v>
   <v name="DARWINV">      1.00000000</v>
   <i type="logical" name="LCORR"> T  </i>
  </separator>
  <i type="logical" name="GGA_COMPAT"> T  </i>
  <i type="logical" name="LBERRY"> F  </i>
  <i type="int" name="ICORELEVEL">     0</i>
  <i type="logical" name="LDAU"> F  </i>
  <i type="int" name="I_CONSTRAINED_M">     0</i>
  <separator name="electronic exchange-correlation" >
   <i type="string" name="GGA">--</i>
   <i type="int" name="VOSKOWN">     0</i>
   <i type="logical" name="LHFCALC"> F  </i>
   <i type="string" name="PRECFOCK"></i>
   <i type="logical" name="LSYMGRAD"> F  </i>
   <i type="logical" name="LHFONE"> F  </i>
   <i type="logical" name="LRHFCALC"> F  </i>
   <i type="logical" name="LTHOMAS"> F  </i>
   <i type="logical" name="LMODELHF"> F  </i>
   <i name="ENCUT4O">     -1.00000000</i>
   <i type="int" name="EXXOEP">     0</i>
   <i type="int" name="FOURORBIT">     0</i>
   <i name="AEXX">      0.00000000</i>
   <i name="HFALPHA">      0.00000000</i>
   <i name="MCALPHA">      0.00000000</i>
   <i name="ALDAX">      1.00000000</i>
   <i name="AGGAX">      1.00000000</i>
   <i name="ALDAC">      1.00000000</i>
   <i name="AGGAC">      1.00000000</i>
   <i type="int" name="NKREDX">     1</i>
   <i type="int" name="NKREDY">     1</i>
   <i type="int" name="NKREDZ">     1</i>
   <i type="logical" name="SHIFTRED"> F  </i>
   <i type="logical" name="ODDONLY"> F  </i>
   <i type="logical" name="EVENONLY"> F  </i>
   <i type="int" name="LMAXFOCK">     0</i>
   <i type="int" name="NMAXFOCKAE">     0</i>
   <i type="logical" name="LFOCKAEDFT"> F  </i>
   <i name="HFSCREEN">      0.00000000</i>
   <i name="HFSCREENC">      0.00000000</i>
   <i type="int" name="NBANDSGWLOW">     0</i>
  </separator>
  <separator name="vdW DFT" >
   <i type="logical" name="LUSE_VDW"> F  </i>
   <i name="Zab_VDW">     -0.84910000</i>
   <i name="PARAM1">      0.12340000</i>
   <i name="PARAM2">      1.00000000</i>
   <i name="PARAM3">      0.00000000</i>
  </separator>
  <separator name="model GW" >
   <i type="int" name="MODEL_GW">     0</i>
   <i name="MODEL_EPS0">    378.00000000</i>
   <i name="MODEL_ALPHA">      1.00000000</i>
  </separator>
  <separator name="linear response parameters" >
   <i type="logical" name="LEPSILON"> F  </i>
   <i type="logical" name="LRPA"> F  </i>
   <i type="logical" name="LNABLA"> F  </i>
   <i type="logical" name="LVEL"> F  </i>
   <i type="int" name="KINTER">     0</i>
   <i name="CSHIFT">      0.10000000</i>
   <i name="OMEGAMAX">     -1.00000000</i>
   <i name="DEG_THRESHOLD">      0.00200000</i>
   <i name="RTIME">     -0.10000000</i>
   <i name="WPLASMAI">      0.00000000</i>
   <v name="DFIELD">      0.00000000      0.00000000      0.00000000</v>
   <v name="WPLASMA">      0.00000000      0.00000000      0.00000000      0.00000000      0.00000000      0.00000000      0.00000000      0.00000000      0.00000000</v>
  </separator>
  <separator name="orbital magnetization" >
   <i type="logical" name="NUCIND"> F  </i>
   <v name="MAGPOS">      0.00000000      0.00000000      0.00000000</v>
   <i type="logical" name="LNICSALL"> T  </i>
   <i type="logical" name="ORBITALMAG"> F  </i>
   <i type="logical" name="LMAGBLOCH"> F  </i>
   <i type="logical" name="LCHIMAG"> F  </i>
   <i type="logical" name="LGAUGE"> T  </i>
   <i type="int" name="MAGATOM">     0</i>
   <v name="MAGDIPOL">      0.00000000      0.00000000      0.00000000</v>
   <v name="AVECCONST">      0.00000000      0.00000000      0.00000000</v>
  </separator>
  <separator name="response functions" >
   <i type="logical" name="LADDER"> F  </i>
   <i type="logical" name="LRPAFORCE"> F  </i>
   <i type="logical" name="LFXC"> F  </i>
   <i type="logical" name="LHARTREE"> T  </i>
   <i type="int" name="IBSE">     0</i>
   <v type="int" name="KPOINT">    -1     0     0     0</v>
   <i type="logical" name="LTCTE"> F  </i>
   <i type="logical" name="LTETE"> F  </i>
   <i type="logical" name="LTRIPLET"> F  </i>
   <i type="logical" name="LFXCEPS"> F  </i>
   <i type="logical" name="LFXHEG"> F  </i>
   <i type="int" name="NATURALO">     2</i>
   <i type="logical" name="L2ORDER"> F  </i>
   <i type="logical" name="LMP2LT"> F  </i>
   <i type="logical" name="LUSEW"> F  </i>
   <i name="ENCUTGW">     -2.00000000</i>
   <i name="ENCUTGWSOFT">     -2.00000000</i>
   <i name="ENCUTLF">     -1.00000000</i>
   <i type="int" name="LMAXMP2">    -1</i>
   <i name="SCISSOR">      0.00000000</i>
   <i type="int" name="NOMEGA">     0</i>
   <i type="int" name="NOMEGAR">     0</i>
   <i type="int" name="NBANDSGW">    -1</i>
   <i type="int" name="NBANDSO">    -1</i>
   <i type="int" name="NBANDSV">    -1</i>
   <i type="int" name="NELM">   100</i>
   <i type="int" name="NELMHF">     1</i>
   <i type="int" name="DIM">     3</i>
   <i type="int" name="ANTIRES">     0</i>
   <i name="OMEGAMAX">    -30.00000000</i>
   <i name="OMEGAMIN">    -30.00000000</i>
   <i name="OMEGATL">   -200.00000000</i>
   <i type="int" name="OMEGAGRID">   140</i>
   <i name="CSHIFT">     -0.10000000</i>
   <i type="logical" name="SELFENERGY"> F  </i>
   <i type="logical" name="LSPECTRAL"> F  </i>
   <i type="logical" name="LSPECTRALGW"> F  </i>
   <i type="logical" name="LSINGLES"> F  </i>
   <i type="logical" name="LFERMIGW"> F  </i>
   <i type="logical" name="ODDONLYGW"> F  </i>
   <i type="logical" name="EVENONLYGW"> F  </i>
   <i type="int" name="NKREDLFX">     1</i>
   <i type="int" name="NKREDLFY">     1</i>
   <i type="int" name="NKREDLFZ">     1</i>
   <i type="int" name="MAXMEM">  2800</i>
   <i type="int" name="TELESCOPE">     0</i>
   <i type="int" name="TAUPAR">     1</i>
   <i type="int" name="OMEGAPAR">    -1</i>
   <i name="LAMBDA">      1.00000000</i>
  </separator>
  <separator name="External order field" >
   <i name="OFIELD_KAPPA">      0.00000000</i>
   <v name="OFIELD_K">      0.00000000      0.00000000      0.00000000</v>
   <i name="OFIELD_Q6_NEAR">      0.00000000</i>
   <i name="OFIELD_Q6_FAR">      0.00000000</i>
   <i name="OFIELD_A">      0.00000000</i>
  </separator>
 </parameters>
 <atominfo>
  <atoms>       8 </atoms>
  <types>       1 </types>
  <array name="atoms" >
   <dimension dim="1">ion</dimension>
   <field type="string">element</field>
   <field type="int">atomtype</field>
   <set>
    <rc><c>H </c><c>   1</c></rc>
    <rc><c>H </c><c>   1</c></rc>
    <rc><c>H </c><c>   1</c></rc>
    <rc><c>H </c><c>   1</c></rc>
    <rc><c>H </c><c>   1</c></rc>
    <rc><c>H </c><c>   1</c></rc>
    <rc><c>H </c><c>   1</c></rc>
    <rc><c>H </c><c>   1</c></rc>
   </set>
  </array>
  <array name="atomtypes" >
   <dimension dim="1">type</dimension>
   <field type="int">atomspertype</field>
   <field type="string">element</field>
   <field>mass</field>
   <field>valence</field>
   <field type="string">pseudopotential</field>
   <set>
    <rc><c>   8</c><c>H </c><c>      1.00000000</c><c>      1.00000000</c><c>  PAW_PBE H 15Jun2001                   </c></rc>
   </set>
  </array>
 </atominfo>
 <structure name="initialpos" >
  <crystal>
   <varray name="basis" >
    <v>      15.00000000       0.00000000       0.00000000 </v>
    <v>       0.00000000      15.00000000       0.00000000 </v>
    <v>       0.00000000       0.00000000      22.40000000 </v>
   </varray>
   <i name="volume">   5040.00000000 </i>
   <varray name="rec_basis" >
    <v>       0.06666667      -0.00000000       0.00000000 </v>
    <v>       0.00000000       0.06666667       0.00000000 </v>
    <v>      -0.00000000      -0.00000000       0.04464286 </v>
   </varray>
  </crystal>
  <varray name="positions" >
   <v>       0.00000000       0.00000000       0.00000000 </v>
   <v>       0.00000000       0.00000000       0.12500000 </v>
   <v>       0.00000000       0.00000000       0.25000000 </v>
   <v>       0.00000000       0.00000000       0.37500000 </v>
   <v>       0.00000000       0.00000000       0.50000000 </v>
   <v>       0.00000000       0.00000000       0.62500000 </v>
   <v>       0.00000000       0.00000000       0.75000000 </v>
   <v>       0.00000000       0.00000000       0.87500000 </v>
  </varray>
 </structure>
 <calculation>
  <scstep>
   <time name="dav">    0.79    0.79</time>
   <time name="total">    2.03    2.03</time>
   <energy>
    <i name="alphaZ">      0.03093546 </i>
    <i name="ewald">     10.36646068 </i>
    <i name="hartreedc">    -73.61602594 </i>
    <i name="XCdc">     15.22747527 </i>
    <i name="pawpsdc">     17.07221949 </i>
    <i name="pawaedc">    -17.14324176 </i>
    <i name="eentropy">     -0.00000022 </i>
    <i name="bandstr">    -33.28355731 </i>
    <i name="atom">     99.56620307 </i>
    <i name="e_fr_energy">     18.22046875 </i>
    <i name="e_wo_entrp">     18.22046897 </i>
    <i name="e_0_energy">     18.22046886 </i>
   </energy>
  </scstep>
  <scstep>
   <time name="dav">    1.25    1.25</time>
   <time name="total">    1.25    1.25</time>
   <energy>
    <i name="e_fr_energy">     -2.14578660 </i>
    <i name="e_wo_entrp">     -2.10583981 </i>
    <i name="e_0_energy">     -2.12581320 </i>
   </energy>
  </scstep>
  <scstep>
   <time name="dav">    0.96    0.96</time>
   <time name="total">    0.96    0.96</time>
   <energy>
    <i name="e_fr_energy">     -3.96566008 </i>
    <i name="e_wo_entrp">     -3.75218730 </i>
    <i name="e_0_energy">     -3.85892369 </i>
   </energy>
  </scstep>
  <scstep>
   <time name="dav">    0.92    0.92</time>
   <time name="total">    0.92    0.97</time>
   <energy>
    <i name="e_fr_energy">     -4.09463822 </i>
    <i name="e_wo_entrp">     -3.86880270 </i>
    <i name="e_0_energy">     -3.98172046 </i>
   </energy>
  </scstep>
  <scstep>
   <time name="dav">    0.88    0.93</time>
   <time name="total">    1.25    1.25</time>
   <energy>
    <i name="e_fr_energy">     -4.09642661 </i>
    <i name="e_wo_entrp">     -3.87058588 </i>
    <i name="e_0_energy">     -3.98350624 </i>
   </energy>
  </scstep>
  <scstep>
   <time name="dav">    0.79    0.79</time>
   <time name="total">    2.43    2.43</time>
   <energy>
    <i name="e_fr_energy">     -4.09731825 </i>
    <i name="e_wo_entrp">     -3.87147670 </i>
    <i name="e_0_energy">     -3.98439747 </i>
   </energy>
  </scstep>
  <scstep>
   <time name="dav">    0.80    0.79</time>
   <time name="total">    2.43    2.43</time>
   <energy>
    <i name="e_fr_energy">     -4.11757673 </i>
    <i name="e_wo_entrp">     -3.89173885 </i>
    <i name="e_0_energy">     -4.00465779 </i>
   </energy>
  </scstep>
  <scstep>
   <time name="dav">    0.89    0.89</time>
   <time name="total">    2.48    2.48</time>
   <energy>
    <i name="e_fr_energy">     -4.11926079 </i>
    <i name="e_wo_entrp">     -3.89342737 </i>
    <i name="e_0_energy">     -4.00634408 </i>
   </energy>
  </scstep>
  <scstep>
   <time name="dav">    0.89    0.89</time>
   <time name="total">    2.49    2.49</time>
   <energy>
    <i name="e_fr_energy">     -4.11952822 </i>
    <i name="e_wo_entrp">     -3.89369578 </i>
    <i name="e_0_energy">     -4.00661200 </i>
   </energy>
  </scstep>
  <scstep>
   <time name="dav">    0.88    0.88</time>
   <time name="total">    2.49    2.49</time>
   <energy>
    <i name="e_fr_energy">     -4.11957675 </i>
    <i name="e_wo_entrp">     -3.89374437 </i>
    <i name="e_0_energy">     -4.00666056 </i>
   </energy>
  </scstep>
  <scstep>
   <time name="dav">    0.89    0.89</time>
   <time name="total">    2.50    2.50</time>
   <energy>
    <i name="e_fr_energy">     -4.11965566 </i>
    <i name="e_wo_entrp">     -3.89382327 </i>
    <i name="e_0_energy">     -4.00673947 </i>
   </energy>
  </scstep>
  <scstep>
   <time name="dav">    0.91    0.91</time>
   <time name="total">    2.55    2.55</time>
   <energy>
    <i name="e_fr_energy">     -4.11967720 </i>
    <i name="e_wo_entrp">     -3.89384475 </i>
    <i name="e_0_energy">     -4.00676097 </i>
   </energy>
  </scstep>
  <scstep>
   <time name="dav">    0.80    0.80</time>
   <time name="total">    2.43    2.43</time>
   <energy>
    <i name="e_fr_energy">     -4.11969015 </i>
    <i name="e_wo_entrp">     -3.89385763 </i>
    <i name="e_0_energy">     -4.00677389 </i>
   </energy>
  </scstep>
  <scstep>
   <time name="dav">    0.66    0.66</time>
   <time name="total">    2.29    2.29</time>
   <energy>
    <i name="e_fr_energy">     -4.11969404 </i>
    <i name="e_wo_entrp">     -3.89386151 </i>
    <i name="e_0_energy">     -4.00677778 </i>
   </energy>
  </scstep>
  <scstep>
   <time name="dav">    0.61    0.61</time>
   <time name="total">    2.23    2.23</time>
   <energy>
    <i name="e_fr_energy">     -4.11970173 </i>
    <i name="e_wo_entrp">     -3.89386920 </i>
    <i name="e_0_energy">     -4.00678547 </i>
   </energy>
  </scstep>
  <scstep>
   <time name="dav">    0.62    0.62</time>
   <time name="total">    2.29    2.29</time>
   <energy>
    <i name="e_fr_energy">     -4.11970577 </i>
    <i name="e_wo_entrp">     -3.89387324 </i>
    <i name="e_0_energy">     -4.00678950 </i>
   </energy>
  </scstep>
  <scstep>
   <time name="dav">    0.61    0.61</time>
   <time name="total">    2.25    2.25</time>
   <energy>
    <i name="e_fr_energy">     -4.11970677 </i>
    <i name="e_wo_entrp">     -3.89387424 </i>
    <i name="e_0_energy">     -4.00679050 </i>
   </energy>
  </scstep>
  <scstep>
   <time name="dav">    0.61    0.61</time>
   <time name="total">    2.26    2.26</time>
   <energy>
    <i name="e_fr_energy">     -4.11970783 </i>
    <i name="e_wo_entrp">     -3.89387531 </i>
    <i name="e_0_energy">     -4.00679157 </i>
   </energy>
  </scstep>
  <scstep>
   <time name="dav">    0.65    0.65</time>
   <time name="total">    1.93    1.95</time>
   <energy>
    <i name="alphaZ">      0.03093546 </i>
    <i name="ewald">     10.36646068 </i>
    <i name="hartreedc">    -71.38778918 </i>
    <i name="XCdc">     14.70393554 </i>
    <i name="pawpsdc">     17.98382585 </i>
    <i name="pawaedc">    -18.04203085 </i>
    <i name="eentropy">     -0.22583252 </i>
    <i name="bandstr">    -57.11541597 </i>
    <i name="atom">     99.56620307 </i>
    <i name="e_fr_energy">     -4.11970792 </i>
    <i name="e_wo_entrp">     -3.89387540 </i>
    <i name="e_0_energy">     -4.00679166 </i>
   </energy>
  </scstep>
  <structure>
   <crystal>
    <varray name="basis" >
     <v>      15.00000000       0.00000000       0.00000000 </v>
     <v>       0.00000000      15.00000000       0.00000000 </v>
     <v>       0.00000000       0.00000000      22.40000000 </v>
    </varray>
    <i name="volume">   5040.00000000 </i>
    <varray name="rec_basis" >
     <v>       0.06666667      -0.00000000       0.00000000 </v>
     <v>       0.00000000       0.06666667       0.00000000 </v>
     <v>      -0.00000000      -0.00000000       0.04464286 </v>
    </varray>
   </crystal>
   <varray name="positions" >
    <v>       0.00000000       0.00000000       0.00000000 </v>
    <v>       0.00000000       0.00000000       0.12500000 </v>
    <v>       0.00000000       0.00000000       0.25000000 </v>
    <v>       0.00000000       0.00000000       0.37500000 </v>
    <v>       0.00000000       0.00000000       0.50000000 </v>
    <v>       0.00000000       0.00000000       0.62500000 </v>
    <v>       0.00000000       0.00000000       0.75000000 </v>
    <v>       0.00000000       0.00000000       0.87500000 </v>
   </varray>
  </structure>
  <varray name="forces" >
   <v>       0.00000000       0.00000000      -0.00000000 </v>
   <v>      -0.00000000      -0.00000000       0.00000000 </v>
   <v>       0.00000000       0.00000000       0.00000000 </v>
   <v>      -0.00000000      -0.00000000      -0.00000000 </v>
   <v>      -0.00000000       0.00000000      -0.00000000 </v>
   <v>       0.00000000      -0.00000000       0.00000000 </v>
   <v>       0.00000000       0.00000000      -0.00000000 </v>
   <v>       0.00000000      -0.00000000      -0.00000000 </v>
  </varray>
  <varray name="stress" >
   <v>      -0.27456009      -0.00000000      -0.00000000 </v>
   <v>      -0.00000000      -0.27456009      -0.00000000 </v>
   <v>      -0.00000000      -0.00000000      -4.61245399 </v>
  </varray>
  <energy>
   <i name="e_fr_energy">     -4.11970792 </i>
   <i name="e_wo_entrp">     -4.00679166 </i>
   <i name="e_0_energy">     -0.22583252 </i>
  </energy>
  <time name="totalsc">   41.81   41.87</time>
  <eigenvalues>
   <array>
    <dimension dim="1">band</dimension>
    <dimension dim="2">kpoint</dimension>
    <dimension dim="3">spin</dimension>
    <field>eigene</field>
    <field>occ</field>
    <set>
     <set comment="spin 1">
      <set comment="kpoint 1">
       <r>   -7.4222    1.0000 </r>
       <r>   -7.2252    0.9999 </r>
       <r>   -7.2252    0.9999 </r>
       <r>   -6.6852    0.5001 </r>
       <r>   -6.6852    0.5001 </r>
       <r>   -6.0137    0.0000 </r>
       <r>   -6.0137    0.0000 </r>
       <r>   -5.6734    0.0000 </r>
       <r>   -0.1277    0.0000 </r>
       <r>   -0.0360    0.0000 </r>
       <r>   -0.0360    0.0000 </r>
       <r>    0.1636    0.0000 </r>
      </set>
     </set>
     <set comment="spin 2">
      <set comment="kpoint 1">
       <r>   -7.4222    1.0000 </r>
       <r>   -7.2252    0.9999 </r>
       <r>   -7.2252    0.9999 </r>
       <r>   -6.6852    0.5001 </r>
       <r>   -6.6852    0.5001 </r>
       <r>   -6.0137    0.0000 </r>
       <r>   -6.0137    0.0000 </r>
       <r>   -5.6734    0.0000 </r>
       <r>   -0.1277    0.0000 </r>
       <r>   -0.0360    0.0000 </r>
       <r>   -0.0360    0.0000 </r>
       <r>    0.1636    0.0000 </r>
      </set>
     </set>
    </set>
   </array>
  </eigenvalues>
  <separator name="orbital magnetization" >
   <v name="MAGDIPOLOUT">      0.00000000      0.00000000      0.00000000</v>
  </separator>
  <dos>
   <i name="efermi">     -6.68513871 </i>
   <total>
    <array>
     <dimension dim="1">gridpoints</dimension>
     <dimension dim="2">spin</dimension>
     <field>energy</field>
     <field>total</field>
     <field>integrated</field>
     <set>
      <set comment="spin 1">
       <r>    -9.4222     0.0000     0.0000 </r>
       <r>    -9.3836     0.0000     0.0000 </r>
       <r>    -9.3450     0.0000     0.0000 </r>
       <r>    -9.3063     0.0000     0.0000 </r>
       <r>    -9.2677     0.0000     0.0000 </r>
       <r>    -9.2291     0.0000     0.0000 </r>
       <r>    -9.1905     0.0000     0.0000 </r>
       <r>    -9.1519     0.0000     0.0000 </r>
       <r>    -9.1132     0.0000     0.0000 </r>
       <r>    -9.0746     0.0000     0.0000 </r>
       <r>    -9.0360     0.0000     0.0000 </r>
       <r>    -8.9974     0.0000     0.0000 </r>
       <r>    -8.9588     0.0000     0.0000 </r>
       <r>    -8.9201     0.0000     0.0000 </r>
       <r>    -8.8815     0.0000     0.0000 </r>
       <r>    -8.8429     0.0000     0.0000 </r>
       <r>    -8.8043     0.0000     0.0000 </r>
       <r>    -8.7657     0.0000     0.0000 </r>
       <r>    -8.7270     0.0000     0.0000 </r>
       <r>    -8.6884     0.0000     0.0000 </r>
       <r>    -8.6498     0.0000     0.0000 </r>
       <r>    -8.6112     0.0000     0.0000 </r>
       <r>    -8.5726     0.0000     0.0000 </r>
       <r>    -8.5339     0.0000     0.0000 </r>
       <r>    -8.4953     0.0000     0.0000 </r>
       <r>    -8.4567     0.0000     0.0000 </r>
       <r>    -8.4181     0.0000     0.0000 </r>
       <r>    -8.3795     0.0000     0.0000 </r>
       <r>    -8.3409     0.0000     0.0000 </r>
       <r>    -8.3022     0.0000     0.0000 </r>
       <r>    -8.2636     0.0000     0.0000 </r>
       <r>    -8.2250     0.0000     0.0000 </r>
       <r>    -8.1864     0.0000     0.0000 </r>
       <r>    -8.1478     0.0000     0.0000 </r>
       <r>    -8.1091     0.0000     0.0000 </r>
       <r>    -8.0705     0.0001     0.0000 </r>
       <r>    -8.0319     0.0003     0.0000 </r>
       <r>    -7.9933     0.0010     0.0001 </r>
       <r>    -7.9547     0.0029     0.0002 </r>
       <r>    -7.9160     0.0081     0.0005 </r>
       <r>    -7.8774     0.0211     0.0013 </r>
       <r>    -7.8388     0.0506     0.0032 </r>
       <r>    -7.8002     0.1131     0.0076 </r>
       <r>    -7.7616     0.2353     0.0167 </r>
       <r>    -7.7229     0.4560     0.0343 </r>
       <r>    -7.6843     0.8241     0.0661 </r>
       <r>    -7.6457     1.3919     0.1199 </r>
       <r>    -7.6071     2.2023     0.2050 </r>
       <r>    -7.5685     3.2754     0.3314 </r>
       <r>    -7.5298     4.5979     0.5090 </r>
       <r>    -7.4912     6.1214     0.7454 </r>
       <r>    -7.4526     7.7690     1.0455 </r>
       <r>    -7.4140     9.4435     1.4102 </r>
       <r>    -7.3754    11.0307     1.8362 </r>
       <r>    -7.3367    12.3969     2.3149 </r>
       <r>    -7.2981    13.3889     2.8320 </r>
       <r>    -7.2595    13.8504     3.3669 </r>
       <r>    -7.2209    13.6615     3.8945 </r>
       <r>    -7.1823    12.7872     4.3883 </r>
       <r>    -7.1436    11.3141     4.8253 </r>
       <r>    -7.1050     9.4499     5.1902 </r>
       <r>    -7.0664     7.4832     5.4792 </r>
       <r>    -7.0278     5.7192     5.7001 </r>
       <r>    -6.9892     4.4195     5.8708 </r>
       <r>    -6.9506     3.7624     6.0161 </r>
       <r>    -6.9119     3.8268     6.1638 </r>
       <r>    -6.8733     4.5866     6.3410 </r>
       <r>    -6.8347     5.9084     6.5692 </r>
       <r>    -6.7961     7.5551     6.8609 </r>
       <r>    -6.7575     9.2082     7.2165 </r>
       <r>    -6.7188    10.5221     7.6229 </r>
       <r>    -6.6802    11.2031     8.0556 </r>
       <r>    -6.6416    11.0901     8.4839 </r>
       <r>    -6.6030    10.1990     8.8777 </r>
       <r>    -6.5644     8.7127     9.2142 </r>
       <r>    -6.5257     6.9171     9.4813 </r>
       <r>    -6.4871     5.1134     9.6788 </r>
       <r>    -6.4485     3.5452     9.8157 </r>
       <r>    -6.4099     2.3628     9.9070 </r>
       <r>    -6.3713     1.6321     9.9700 </r>
       <r>    -6.3326     1.3681    10.0228 </r>
       <r>    -6.2940     1.5709    10.0835 </r>
       <r>    -6.2554     2.2410    10.1701 </r>
       <r>    -6.2168     3.3677    10.3001 </r>
       <r>    -6.1782     4.8957    10.4892 </r>
       <r>    -6.1395     6.6903    10.7476 </r>
       <r>    -6.1009     8.5267    11.0769 </r>
       <r>    -6.0623    10.1204    11.4677 </r>
       <r>    -6.0237    11.2000    11.9002 </r>
       <r>    -5.9851    11.5945    12.3480 </r>
       <r>    -5.9464    11.2977    12.7843 </r>
       <r>    -5.9078    10.4750    13.1889 </r>
       <r>    -5.8692     9.4036    13.5520 </r>
       <r>    -5.8306     8.3704    13.8753 </r>
       <r>    -5.7920     7.5721    14.1677 </r>
       <r>    -5.7534     7.0594    14.4403 </r>
       <r>    -5.7147     6.7450    14.7008 </r>
       <r>    -5.6761     6.4653    14.9505 </r>
       <r>    -5.6375     6.0615    15.1846 </r>
       <r>    -5.5989     5.4455    15.3949 </r>
       <r>    -5.5603     4.6242    15.5735 </r>
       <r>    -5.5216     3.6817    15.7157 </r>
       <r>    -5.4830     2.7360    15.8213 </r>
       <r>    -5.4444     1.8931    15.8945 </r>
       <r>    -5.4058     1.2181    15.9415 </r>
       <r>    -5.3672     0.7283    15.9696 </r>
       <r>    -5.3285     0.4045    15.9852 </r>
       <r>    -5.2899     0.2087    15.9933 </r>
       <r>    -5.2513     0.1000    15.9972 </r>
       <r>    -5.2127     0.0445    15.9989 </r>
       <r>    -5.1741     0.0184    15.9996 </r>
       <r>    -5.1354     0.0070    15.9999 </r>
       <r>    -5.0968     0.0025    16.0000 </r>
       <r>    -5.0582     0.0008    16.0000 </r>
       <r>    -5.0196     0.0003    16.0000 </r>
       <r>    -4.9810     0.0001    16.0000 </r>
       <r>    -4.9423     0.0000    16.0000 </r>
       <r>    -4.9037     0.0000    16.0000 </r>
       <r>    -4.8651     0.0000    16.0000 </r>
       <r>    -4.8265     0.0000    16.0000 </r>
       <r>    -4.7879     0.0000    16.0000 </r>
       <r>    -4.7492     0.0000    16.0000 </r>
       <r>    -4.7106     0.0000    16.0000 </r>
       <r>    -4.6720     0.0000    16.0000 </r>
       <r>    -4.6334     0.0000    16.0000 </r>
       <r>    -4.5948     0.0000    16.0000 </r>
       <r>    -4.5561     0.0000    16.0000 </r>
       <r>    -4.5175     0.0000    16.0000 </r>
       <r>    -4.4789     0.0000    16.0000 </r>
       <r>    -4.4403     0.0000    16.0000 </r>
       <r>    -4.4017     0.0000    16.0000 </r>
       <r>    -4.3631     0.0000    16.0000 </r>
       <r>    -4.3244     0.0000    16.0000 </r>
       <r>    -4.2858     0.0000    16.0000 </r>
       <r>    -4.2472     0.0000    16.0000 </r>
       <r>    -4.2086     0.0000    16.0000 </r>
       <r>    -4.1700     0.0000    16.0000 </r>
       <r>    -4.1313     0.0000    16.0000 </r>
       <r>    -4.0927     0.0000    16.0000 </r>
       <r>    -4.0541     0.0000    16.0000 </r>
       <r>    -4.0155     0.0000    16.0000 </r>
       <r>    -3.9769     0.0000    16.0000 </r>
       <r>    -3.9382     0.0000    16.0000 </r>
       <r>    -3.8996     0.0000    16.0000 </r>
       <r>    -3.8610     0.0000    16.0000 </r>
       <r>    -3.8224     0.0000    16.0000 </r>
       <r>    -3.7838     0.0000    16.0000 </r>
       <r>    -3.7451     0.0000    16.0000 </r>
       <r>    -3.7065     0.0000    16.0000 </r>
       <r>    -3.6679     0.0000    16.0000 </r>
       <r>    -3.6293     0.0000    16.0000 </r>
       <r>    -3.5907     0.0000    16.0000 </r>
       <r>    -3.5520     0.0000    16.0000 </r>
       <r>    -3.5134     0.0000    16.0000 </r>
       <r>    -3.4748     0.0000    16.0000 </r>
       <r>    -3.4362     0.0000    16.0000 </r>
       <r>    -3.3976     0.0000    16.0000 </r>
       <r>    -3.3589     0.0000    16.0000 </r>
       <r>    -3.3203     0.0000    16.0000 </r>
       <r>    -3.2817     0.0000    16.0000 </r>
       <r>    -3.2431     0.0000    16.0000 </r>
       <r>    -3.2045     0.0000    16.0000 </r>
       <r>    -3.1659     0.0000    16.0000 </r>
       <r>    -3.1272     0.0000    16.0000 </r>
       <r>    -3.0886     0.0000    16.0000 </r>
       <r>    -3.0500     0.0000    16.0000 </r>
       <r>    -3.0114     0.0000    16.0000 </r>
       <r>    -2.9728     0.0000    16.0000 </r>
       <r>    -2.9341     0.0000    16.0000 </r>
       <r>    -2.8955     0.0000    16.0000 </r>
       <r>    -2.8569     0.0000    16.0000 </r>
       <r>    -2.8183     0.0000    16.0000 </r>
       <r>    -2.7797     0.0000    16.0000 </r>
       <r>    -2.7410     0.0000    16.0000 </r>
       <r>    -2.7024     0.0000    16.0000 </r>
       <r>    -2.6638     0.0000    16.0000 </r>
       <r>    -2.6252     0.0000    16.0000 </r>
       <r>    -2.5866     0.0000    16.0000 </r>
       <r>    -2.5479     0.0000    16.0000 </r>
       <r>    -2.5093     0.0000    16.0000 </r>
       <r>    -2.4707     0.0000    16.0000 </r>
       <r>    -2.4321     0.0000    16.0000 </r>
       <r>    -2.3935     0.0000    16.0000 </r>
       <r>    -2.3548     0.0000    16.0000 </r>
       <r>    -2.3162     0.0000    16.0000 </r>
       <r>    -2.2776     0.0000    16.0000 </r>
       <r>    -2.2390     0.0000    16.0000 </r>
       <r>    -2.2004     0.0000    16.0000 </r>
       <r>    -2.1617     0.0000    16.0000 </r>
       <r>    -2.1231     0.0000    16.0000 </r>
       <r>    -2.0845     0.0000    16.0000 </r>
       <r>    -2.0459     0.0000    16.0000 </r>
       <r>    -2.0073     0.0000    16.0000 </r>
       <r>    -1.9686     0.0000    16.0000 </r>
       <r>    -1.9300     0.0000    16.0000 </r>
       <r>    -1.8914     0.0000    16.0000 </r>
       <r>    -1.8528     0.0000    16.0000 </r>
       <r>    -1.8142     0.0000    16.0000 </r>
       <r>    -1.7756     0.0000    16.0000 </r>
       <r>    -1.7369     0.0000    16.0000 </r>
       <r>    -1.6983     0.0000    16.0000 </r>
       <r>    -1.6597     0.0000    16.0000 </r>
       <r>    -1.6211     0.0000    16.0000 </r>
       <r>    -1.5825     0.0000    16.0000 </r>
       <r>    -1.5438     0.0000    16.0000 </r>
       <r>    -1.5052     0.0000    16.0000 </r>
       <r>    -1.4666     0.0000    16.0000 </r>
       <r>    -1.4280     0.0000    16.0000 </r>
       <r>    -1.3894     0.0000    16.0000 </r>
       <r>    -1.3507     0.0000    16.0000 </r>
       <r>    -1.3121     0.0000    16.0000 </r>
       <r>    -1.2735     0.0000    16.0000 </r>
       <r>    -1.2349     0.0000    16.0000 </r>
       <r>    -1.1963     0.0000    16.0000 </r>
       <r>    -1.1576     0.0000    16.0000 </r>
       <r>    -1.1190     0.0000    16.0000 </r>
       <r>    -1.0804     0.0000    16.0000 </r>
       <r>    -1.0418     0.0000    16.0000 </r>
       <r>    -1.0032     0.0000    16.0000 </r>
       <r>    -0.9645     0.0000    16.0000 </r>
       <r>    -0.9259     0.0000    16.0000 </r>
       <r>    -0.8873     0.0000    16.0000 </r>
       <r>    -0.8487     0.0000    16.0000 </r>
       <r>    -0.8101     0.0000    16.0000 </r>
       <r>    -0.7714     0.0001    16.0000 </r>
       <r>    -0.7328     0.0004    16.0000 </r>
       <r>    -0.6942     0.0012    16.0001 </r>
       <r>    -0.6556     0.0038    16.0002 </r>
       <r>    -0.6170     0.0106    16.0006 </r>
       <r>    -0.5784     0.0277    16.0017 </r>
       <r>    -0.5397     0.0679    16.0043 </r>
       <r>    -0.5011     0.1550    16.0103 </r>
       <r>    -0.4625     0.3305    16.0231 </r>
       <r>    -0.4239     0.6581    16.0485 </r>
       <r>    -0.3853     1.2247    16.0958 </r>
       <r>    -0.3466     2.1312    16.1781 </r>
       <r>    -0.3080     3.4704    16.3121 </r>
       <r>    -0.2694     5.2915    16.5165 </r>
       <r>    -0.2308     7.5602    16.8084 </r>
       <r>    -0.1922    10.1313    17.1997 </r>
       <r>    -0.1535    12.7494    17.6921 </r>
       <r>    -0.1149    15.0910    18.2749 </r>
       <r>    -0.0763    16.8402    18.9252 </r>
       <r>    -0.0377    17.7720    19.6116 </r>
       <r>     0.0009    17.8108    20.2994 </r>
       <r>     0.0396    17.0374    20.9574 </r>
       <r>     0.0782    15.6444    21.5616 </r>
       <r>     0.1168    13.8645    22.0970 </r>
       <r>     0.1554    11.9052    22.5568 </r>
       <r>     0.1940     9.9181    22.9398 </r>
       <r>     0.2327     8.0014    23.2488 </r>
       <r>     0.2713     6.2224    23.4891 </r>
       <r>     0.3099     4.6355    23.6682 </r>
       <r>     0.3485     3.2865    23.7951 </r>
       <r>     0.3871     2.2040    23.8802 </r>
       <r>     0.4258     1.3912    23.9339 </r>
       <r>     0.4644     0.8233    23.9657 </r>
       <r>     0.5030     0.4555    23.9833 </r>
       <r>     0.5416     0.2351    23.9924 </r>
       <r>     0.5802     0.1130    23.9968 </r>
       <r>     0.6189     0.0506    23.9987 </r>
       <r>     0.6575     0.0210    23.9995 </r>
       <r>     0.6961     0.0081    23.9998 </r>
       <r>     0.7347     0.0029    23.9999 </r>
       <r>     0.7733     0.0010    24.0000 </r>
       <r>     0.8119     0.0003    24.0000 </r>
       <r>     0.8506     0.0001    24.0000 </r>
       <r>     0.8892     0.0000    24.0000 </r>
       <r>     0.9278     0.0000    24.0000 </r>
       <r>     0.9664     0.0000    24.0000 </r>
       <r>     1.0050     0.0000    24.0000 </r>
       <r>     1.0437     0.0000    24.0000 </r>
       <r>     1.0823     0.0000    24.0000 </r>
       <r>     1.1209     0.0000    24.0000 </r>
       <r>     1.1595     0.0000    24.0000 </r>
       <r>     1.1981     0.0000    24.0000 </r>
       <r>     1.2368     0.0000    24.0000 </r>
       <r>     1.2754     0.0000    24.0000 </r>
       <r>     1.3140     0.0000    24.0000 </r>
       <r>     1.3526     0.0000    24.0000 </r>
       <r>     1.3912     0.0000    24.0000 </r>
       <r>     1.4299     0.0000    24.0000 </r>
       <r>     1.4685     0.0000    24.0000 </r>
       <r>     1.5071     0.0000    24.0000 </r>
       <r>     1.5457     0.0000    24.0000 </r>
       <r>     1.5843     0.0000    24.0000 </r>
       <r>     1.6230     0.0000    24.0000 </r>
       <r>     1.6616     0.0000    24.0000 </r>
       <r>     1.7002     0.0000    24.0000 </r>
       <r>     1.7388     0.0000    24.0000 </r>
       <r>     1.7774     0.0000    24.0000 </r>
       <r>     1.8161     0.0000    24.0000 </r>
       <r>     1.8547     0.0000    24.0000 </r>
       <r>     1.8933     0.0000    24.0000 </r>
       <r>     1.9319     0.0000    24.0000 </r>
       <r>     1.9705     0.0000    24.0000 </r>
       <r>     2.0091     0.0000    24.0000 </r>
       <r>     2.0478     0.0000    24.0000 </r>
       <r>     2.0864     0.0000    24.0000 </r>
       <r>     2.1250     0.0000    24.0000 </r>
       <r>     2.1636     0.0000    24.0000 </r>
      </set>
      <set comment="spin 2">
       <r>    -9.4222     0.0000     0.0000 </r>
       <r>    -9.3836     0.0000     0.0000 </r>
       <r>    -9.3450     0.0000     0.0000 </r>
       <r>    -9.3063     0.0000     0.0000 </r>
       <r>    -9.2677     0.0000     0.0000 </r>
       <r>    -9.2291     0.0000     0.0000 </r>
       <r>    -9.1905     0.0000     0.0000 </r>
       <r>    -9.1519     0.0000     0.0000 </r>
       <r>    -9.1132     0.0000     0.0000 </r>
       <r>    -9.0746     0.0000     0.0000 </r>
       <r>    -9.0360     0.0000     0.0000 </r>
       <r>    -8.9974     0.0000     0.0000 </r>
       <r>    -8.9588     0.0000     0.0000 </r>
       <r>    -8.9201     0.0000     0.0000 </r>
       <r>    -8.8815     0.0000     0.0000 </r>
       <r>    -8.8429     0.0000     0.0000 </r>
       <r>    -8.8043     0.0000     0.0000 </r>
       <r>    -8.7657     0.0000     0.0000 </r>
       <r>    -8.7270     0.0000     0.0000 </r>
       <r>    -8.6884     0.0000     0.0000 </r>
       <r>    -8.6498     0.0000     0.0000 </r>
       <r>    -8.6112     0.0000     0.0000 </r>
       <r>    -8.5726     0.0000     0.0000 </r>
       <r>    -8.5339     0.0000     0.0000 </r>
       <r>    -8.4953     0.0000     0.0000 </r>
       <r>    -8.4567     0.0000     0.0000 </r>
       <r>    -8.4181     0.0000     0.0000 </r>
       <r>    -8.3795     0.0000     0.0000 </r>
       <r>    -8.3409     0.0000     0.0000 </r>
       <r>    -8.3022     0.0000     0.0000 </r>
       <r>    -8.2636     0.0000     0.0000 </r>
       <r>    -8.2250     0.0000     0.0000 </r>
       <r>    -8.1864     0.0000     0.0000 </r>
       <r>    -8.1478     0.0000     0.0000 </r>
       <r>    -8.1091     0.0000     0.0000 </r>
       <r>    -8.0705     0.0001     0.0000 </r>
       <r>    -8.0319     0.0003     0.0000 </r>
       <r>    -7.9933     0.0010     0.0001 </r>
       <r>    -7.9547     0.0029     0.0002 </r>
       <r>    -7.9160     0.0081     0.0005 </r>
       <r>    -7.8774     0.0211     0.0013 </r>
       <r>    -7.8388     0.0506     0.0032 </r>
       <r>    -7.8002     0.1131     0.0076 </r>
       <r>    -7.7616     0.2353     0.0167 </r>
       <r>    -7.7229     0.4560     0.0343 </r>
       <r>    -7.6843     0.8241     0.0661 </r>
       <r>    -7.6457     1.3919     0.1199 </r>
       <r>    -7.6071     2.2023     0.2050 </r>
       <r>    -7.5685     3.2754     0.3314 </r>
       <r>    -7.5298     4.5979     0.5090 </r>
       <r>    -7.4912     6.1214     0.7454 </r>
       <r>    -7.4526     7.7690     1.0455 </r>
       <r>    -7.4140     9.4435     1.4102 </r>
       <r>    -7.3754    11.0307     1.8362 </r>
       <r>    -7.3367    12.3969     2.3149 </r>
       <r>    -7.2981    13.3889     2.8320 </r>
       <r>    -7.2595    13.8504     3.3669 </r>
       <r>    -7.2209    13.6615     3.8945 </r>
       <r>    -7.1823    12.7872     4.3883 </r>
       <r>    -7.1436    11.3141     4.8253 </r>
       <r>    -7.1050     9.4499     5.1902 </r>
       <r>    -7.0664     7.4832     5.4792 </r>
       <r>    -7.0278     5.7192     5.7001 </r>
       <r>    -6.9892     4.4195     5.8708 </r>
       <r>    -6.9506     3.7624     6.0161 </r>
       <r>    -6.9119     3.8268     6.1638 </r>
       <r>    -6.8733     4.5866     6.3410 </r>
       <r>    -6.8347     5.9084     6.5692 </r>
       <r>    -6.7961     7.5551     6.8609 </r>
       <r>    -6.7575     9.2082     7.2165 </r>
       <r>    -6.7188    10.5221     7.6229 </r>
       <r>    -6.6802    11.2031     8.0556 </r>
       <r>    -6.6416    11.0901     8.4839 </r>
       <r>    -6.6030    10.1990     8.8777 </r>
       <r>    -6.5644     8.7127     9.2142 </r>
       <r>    -6.5257     6.9171     9.4813 </r>
       <r>    -6.4871     5.1134     9.6788 </r>
       <r>    -6.4485     3.5452     9.8157 </r>
       <r>    -6.4099     2.3628     9.9070 </r>
       <r>    -6.3713     1.6321     9.9700 </r>
       <r>    -6.3326     1.3681    10.0228 </r>
       <r>    -6.2940     1.5709    10.0835 </r>
       <r>    -6.2554     2.2410    10.1701 </r>
       <r>    -6.2168     3.3677    10.3001 </r>
       <r>    -6.1782     4.8957    10.4892 </r>
       <r>    -6.1395     6.6903    10.7476 </r>
       <r>    -6.1009     8.5267    11.0769 </r>
       <r>    -6.0623    10.1204    11.4677 </r>
       <r>    -6.0237    11.2000    11.9002 </r>
       <r>    -5.9851    11.5945    12.3480 </r>
       <r>    -5.9464    11.2977    12.7843 </r>
       <r>    -5.9078    10.4750    13.1889 </r>
       <r>    -5.8692     9.4036    13.5520 </r>
       <r>    -5.8306     8.3704    13.8753 </r>
       <r>    -5.7920     7.5721    14.1677 </r>
       <r>    -5.7534     7.0594    14.4403 </r>
       <r>    -5.7147     6.7450    14.7008 </r>
       <r>    -5.6761     6.4653    14.9505 </r>
       <r>    -5.6375     6.0615    15.1846 </r>
       <r>    -5.5989     5.4455    15.3949 </r>
       <r>    -5.5603     4.6242    15.5735 </r>
       <r>    -5.5216     3.6817    15.7157 </r>
       <r>    -5.4830     2.7360    15.8213 </r>
       <r>    -5.4444     1.8931    15.8945 </r>
       <r>    -5.4058     1.2181    15.9415 </r>
       <r>    -5.3672     0.7283    15.9696 </r>
       <r>    -5.3285     0.4045    15.9852 </r>
       <r>    -5.2899     0.2087    15.9933 </r>
       <r>    -5.2513     0.1000    15.9972 </r>
       <r>    -5.2127     0.0445    15.9989 </r>
       <r>    -5.1741     0.0184    15.9996 </r>
       <r>    -5.1354     0.0070    15.9999 </r>
       <r>    -5.0968     0.0025    16.0000 </r>
       <r>    -5.0582     0.0008    16.0000 </r>
       <r>    -5.0196     0.0003    16.0000 </r>
       <r>    -4.9810     0.0001    16.0000 </r>
       <r>    -4.9423     0.0000    16.0000 </r>
       <r>    -4.9037     0.0000    16.0000 </r>
       <r>    -4.8651     0.0000    16.0000 </r>
       <r>    -4.8265     0.0000    16.0000 </r>
       <r>    -4.7879     0.0000    16.0000 </r>
       <r>    -4.7492     0.0000    16.0000 </r>
       <r>    -4.7106     0.0000    16.0000 </r>
       <r>    -4.6720     0.0000    16.0000 </r>
       <r>    -4.6334     0.0000    16.0000 </r>
       <r>    -4.5948     0.0000    16.0000 </r>
       <r>    -4.5561     0.0000    16.0000 </r>
       <r>    -4.5175     0.0000    16.0000 </r>
       <r>    -4.4789     0.0000    16.0000 </r>
       <r>    -4.4403     0.0000    16.0000 </r>
       <r>    -4.4017     0.0000    16.0000 </r>
       <r>    -4.3631     0.0000    16.0000 </r>
       <r>    -4.3244     0.0000    16.0000 </r>
       <r>    -4.2858     0.0000    16.0000 </r>
       <r>    -4.2472     0.0000    16.0000 </r>
       <r>    -4.2086     0.0000    16.0000 </r>
       <r>    -4.1700     0.0000    16.0000 </r>
       <r>    -4.1313     0.0000    16.0000 </r>
       <r>    -4.0927     0.0000    16.0000 </r>
       <r>    -4.0541     0.0000    16.0000 </r>
       <r>    -4.0155     0.0000    16.0000 </r>
       <r>    -3.9769     0.0000    16.0000 </r>
       <r>    -3.9382     0.0000    16.0000 </r>
       <r>    -3.8996     0.0000    16.0000 </r>
       <r>    -3.8610     0.0000    16.0000 </r>
       <r>    -3.8224     0.0000    16.0000 </r>
       <r>    -3.7838     0.0000    16.0000 </r>
       <r>    -3.7451     0.0000    16.0000 </r>
       <r>    -3.7065     0.0000    16.0000 </r>
       <r>    -3.6679     0.0000    16.0000 </r>
       <r>    -3.6293     0.0000    16.0000 </r>
       <r>    -3.5907     0.0000    16.0000 </r>
       <r>    -3.5520     0.0000    16.0000 </r>
       <r>    -3.5134     0.0000    16.0000 </r>
       <r>    -3.4748     0.0000    16.0000 </r>
       <r>    -3.4362     0.0000    16.0000 </r>
       <r>    -3.3976     0.0000    16.0000 </r>
       <r>    -3.3589     0.0000    16.0000 </r>
       <r>    -3.3203     0.0000    16.0000 </r>
       <r>    -3.2817     0.0000    16.0000 </r>
       <r>    -3.2431     0.0000    16.0000 </r>
       <r>    -3.2045     0.0000    16.0000 </r>
       <r>    -3.1659     0.0000    16.0000 </r>
       <r>    -3.1272     0.0000    16.0000 </r>
       <r>    -3.0886     0.0000    16.0000 </r>
       <r>    -3.0500     0.0000    16.0000 </r>
       <r>    -3.0114     0.0000    16.0000 </r>
       <r>    -2.9728     0.0000    16.0000 </r>
       <r>    -2.9341     0.0000    16.0000 </r>
       <r>    -2.8955     0.0000    16.0000 </r>
       <r>    -2.8569     0.0000    16.0000 </r>
       <r>    -2.8183     0.0000    16.0000 </r>
       <r>    -2.7797     0.0000    16.0000 </r>
       <r>    -2.7410     0.0000    16.0000 </r>
       <r>    -2.7024     0.0000    16.0000 </r>
       <r>    -2.6638     0.0000    16.0000 </r>
       <r>    -2.6252     0.0000    16.0000 </r>
       <r>    -2.5866     0.0000    16.0000 </r>
       <r>    -2.5479     0.0000    16.0000 </r>
       <r>    -2.5093     0.0000    16.0000 </r>
       <r>    -2.4707     0.0000    16.0000 </r>
       <r>    -2.4321     0.0000    16.0000 </r>
       <r>    -2.3935     0.0000    16.0000 </r>
       <r>    -2.3548     0.0000    16.0000 </r>
       <r>    -2.3162     0.0000    16.0000 </r>
       <r>    -2.2776     0.0000    16.0000 </r>
       <r>    -2.2390     0.0000    16.0000 </r>
       <r>    -2.2004     0.0000    16.0000 </r>
       <r>    -2.1617     0.0000    16.0000 </r>
       <r>    -2.1231     0.0000    16.0000 </r>
       <r>    -2.0845     0.0000    16.0000 </r>
       <r>    -2.0459     0.0000    16.0000 </r>
       <r>    -2.0073     0.0000    16.0000 </r>
       <r>    -1.9686     0.0000    16.0000 </r>
       <r>    -1.9300     0.0000    16.0000 </r>
       <r>    -1.8914     0.0000    16.0000 </r>
       <r>    -1.8528     0.0000    16.0000 </r>
       <r>    -1.8142     0.0000    16.0000 </r>
       <r>    -1.7756     0.0000    16.0000 </r>
       <r>    -1.7369     0.0000    16.0000 </r>
       <r>    -1.6983     0.0000    16.0000 </r>
       <r>    -1.6597     0.0000    16.0000 </r>
       <r>    -1.6211     0.0000    16.0000 </r>
       <r>    -1.5825     0.0000    16.0000 </r>
       <r>    -1.5438     0.0000    16.0000 </r>
       <r>    -1.5052     0.0000    16.0000 </r>
       <r>    -1.4666     0.0000    16.0000 </r>
       <r>    -1.4280     0.0000    16.0000 </r>
       <r>    -1.3894     0.0000    16.0000 </r>
       <r>    -1.3507     0.0000    16.0000 </r>
       <r>    -1.3121     0.0000    16.0000 </r>
       <r>    -1.2735     0.0000    16.0000 </r>
       <r>    -1.2349     0.0000    16.0000 </r>
       <r>    -1.1963     0.0000    16.0000 </r>
       <r>    -1.1576     0.0000    16.0000 </r>
       <r>    -1.1190     0.0000    16.0000 </r>
       <r>    -1.0804     0.0000    16.0000 </r>
       <r>    -1.0418     0.0000    16.0000 </r>
       <r>    -1.0032     0.0000    16.0000 </r>
       <r>    -0.9645     0.0000    16.0000 </r>
       <r>    -0.9259     0.0000    16.0000 </r>
       <r>    -0.8873     0.0000    16.0000 </r>
       <r>    -0.8487     0.0000    16.0000 </r>
       <r>    -0.8101     0.0000    16.0000 </r>
       <r>    -0.7714     0.0001    16.0000 </r>
       <r>    -0.7328     0.0004    16.0000 </r>
       <r>    -0.6942     0.0012    16.0001 </r>
       <r>    -0.6556     0.0037    16.0002 </r>
       <r>    -0.6170     0.0106    16.0006 </r>
       <r>    -0.5784     0.0277    16.0017 </r>
       <r>    -0.5397     0.0679    16.0043 </r>
       <r>    -0.5011     0.1550    16.0103 </r>
       <r>    -0.4625     0.3304    16.0231 </r>
       <r>    -0.4239     0.6579    16.0485 </r>
       <r>    -0.3853     1.2243    16.0958 </r>
       <r>    -0.3466     2.1307    16.1780 </r>
       <r>    -0.3080     3.4695    16.3120 </r>
       <r>    -0.2694     5.2902    16.5163 </r>
       <r>    -0.2308     7.5586    16.8082 </r>
       <r>    -0.1922    10.1294    17.1994 </r>
       <r>    -0.1535    12.7474    17.6917 </r>
       <r>    -0.1149    15.0892    18.2745 </r>
       <r>    -0.0763    16.8389    18.9248 </r>
       <r>    -0.0377    17.7715    19.6111 </r>
       <r>     0.0009    17.8111    20.2989 </r>
       <r>     0.0396    17.0385    20.9570 </r>
       <r>     0.0782    15.6461    21.5612 </r>
       <r>     0.1168    13.8664    22.0967 </r>
       <r>     0.1554    11.9071    22.5566 </r>
       <r>     0.1940     9.9197    22.9397 </r>
       <r>     0.2327     8.0027    23.2487 </r>
       <r>     0.2713     6.2233    23.4891 </r>
       <r>     0.3099     4.6362    23.6681 </r>
       <r>     0.3485     3.2869    23.7950 </r>
       <r>     0.3871     2.2043    23.8802 </r>
       <r>     0.4258     1.3914    23.9339 </r>
       <r>     0.4644     0.8234    23.9657 </r>
       <r>     0.5030     0.4556    23.9833 </r>
       <r>     0.5416     0.2351    23.9924 </r>
       <r>     0.5802     0.1131    23.9968 </r>
       <r>     0.6189     0.0506    23.9987 </r>
       <r>     0.6575     0.0210    23.9995 </r>
       <r>     0.6961     0.0081    23.9998 </r>
       <r>     0.7347     0.0029    23.9999 </r>
       <r>     0.7733     0.0010    24.0000 </r>
       <r>     0.8119     0.0003    24.0000 </r>
       <r>     0.8506     0.0001    24.0000 </r>
       <r>     0.8892     0.0000    24.0000 </r>
       <r>     0.9278     0.0000    24.0000 </r>
       <r>     0.9664     0.0000    24.0000 </r>
       <r>     1.0050     0.0000    24.0000 </r>
       <r>     1.0437     0.0000    24.0000 </r>
       <r>     1.0823     0.0000    24.0000 </r>
       <r>     1.1209     0.0000    24.0000 </r>
       <r>     1.1595     0.0000    24.0000 </r>
       <r>     1.1981     0.0000    24.0000 </r>
       <r>     1.2368     0.0000    24.0000 </r>
       <r>     1.2754     0.0000    24.0000 </r>
       <r>     1.3140     0.0000    24.0000 </r>
       <r>     1.3526     0.0000    24.0000 </r>
       <r>     1.3912     0.0000    24.0000 </r>
       <r>     1.4299     0.0000    24.0000 </r>
       <r>     1.4685     0.0000    24.0000 </r>
       <r>     1.5071     0.0000    24.0000 </r>
       <r>     1.5457     0.0000    24.0000 </r>
       <r>     1.5843     0.0000    24.0000 </r>
       <r>     1.6230     0.0000    24.0000 </r>
       <r>     1.6616     0.0000    24.0000 </r>
       <r>     1.7002     0.0000    24.0000 </r>
       <r>     1.7388     0.0000    24.0000 </r>
       <r>     1.7774     0.0000    24.0000 </r>
       <r>     1.8161     0.0000    24.0000 </r>
       <r>     1.8547     0.0000    24.0000 </r>
       <r>     1.8933     0.0000    24.0000 </r>
       <r>     1.9319     0.0000    24.0000 </r>
       <r>     1.9705     0.0000    24.0000 </r>
       <r>     2.0091     0.0000    24.0000 </r>
       <r>     2.0478     0.0000    24.0000 </r>
       <r>     2.0864     0.0000    24.0000 </r>
       <r>     2.1250     0.0000    24.0000 </r>
       <r>     2.1636     0.0000    24.0000 </r>
      </set>
     </set>
    </array>
   </total>
  </dos>
 </calculation>
 <structure name="finalpos" >
  <crystal>
   <varray name="basis" >
    <v>      15.00000000       0.00000000       0.00000000 </v>
    <v>       0.00000000      15.00000000       0.00000000 </v>
    <v>       0.00000000       0.00000000      22.40000000 </v>
   </varray>
   <i name="volume">   5040.00000000 </i>
   <varray name="rec_basis" >
    <v>       0.06666667      -0.00000000       0.00000000 </v>
    <v>       0.00000000       0.06666667       0.00000000 </v>
    <v>      -0.00000000      -0.00000000       0.04464286 </v>
   </varray>
  </crystal>
  <varray name="positions" >
   <v>       0.00000000       0.00000000       0.00000000 </v>
   <v>       0.00000000       0.00000000       0.12500000 </v>
   <v>       0.00000000       0.00000000       0.25000000 </v>
   <v>       0.00000000       0.00000000       0.37500000 </v>
   <v>       0.00000000       0.00000000       0.50000000 </v>
   <v>       0.00000000       0.00000000       0.62500000 </v>
   <v>       0.00000000       0.00000000       0.75000000 </v>
   <v>       0.00000000       0.00000000       0.87500000 </v>
  </varray>
 </structure>
</modeling>
