   8   8   0   0
  0.4950000E+03  0.1500000E-08  0.1500000E-08  0.1760000E-08  0.5000000E-15
  1.000000000000000E-004
  CAR 
 unknown system                          
      2.36062566    -10.25234615  301     -6.69656739      1.00000000
    -10.252  0.0000E+00  0.0000E+00  0.0000E+00  0.0000E+00
    -10.210  0.0000E+00  0.0000E+00  0.0000E+00  0.0000E+00
    -10.168  0.0000E+00  0.0000E+00  0.0000E+00  0.0000E+00
    -10.126  0.0000E+00  0.0000E+00  0.0000E+00  0.0000E+00
    -10.084  0.0000E+00  0.0000E+00  0.0000E+00  0.0000E+00
    -10.042  0.0000E+00  0.0000E+00  0.0000E+00  0.0000E+00
    -10.000  0.0000E+00  0.0000E+00  0.0000E+00  0.0000E+00
     -9.958  0.0000E+00  0.0000E+00  0.0000E+00  0.0000E+00
     -9.916  0.0000E+00  0.0000E+00  0.0000E+00  0.0000E+00
     -9.874  0.0000E+00  0.0000E+00  0.0000E+00  0.0000E+00
     -9.832  0.0000E+00  0.0000E+00  0.0000E+00  0.0000E+00
     -9.790  0.0000E+00  0.0000E+00  0.0000E+00  0.0000E+00
     -9.748  0.0000E+00  0.0000E+00  0.0000E+00  0.0000E+00
     -9.706  0.0000E+00  0.0000E+00  0.0000E+00  0.0000E+00
     -9.664  0.0000E+00  0.0000E+00  0.0000E+00  0.0000E+00
     -9.622  0.0000E+00  0.0000E+00  0.0000E+00  0.0000E+00
     -9.580  0.0000E+00  0.0000E+00  0.0000E+00  0.0000E+00
     -9.538  0.0000E+00  0.0000E+00  0.0000E+00  0.0000E+00
     -9.496  0.0000E+00  0.0000E+00  0.0000E+00  0.0000E+00
     -9.454  0.0000E+00  0.0000E+00  0.0000E+00  0.0000E+00
     -9.411  0.5281E-14  0.5281E-14  0.2220E-15  0.2220E-15
     -9.369  0.6074E-13  0.6074E-13  0.2776E-14  0.2776E-14
     -9.327  0.6285E-12  0.6285E-12  0.2920E-13  0.2920E-13
     -9.285  0.5928E-11  0.5928E-11  0.2784E-12  0.2784E-12
     -9.243  0.5122E-10  0.5122E-10  0.2432E-11  0.2432E-11
     -9.201  0.4055E-09  0.4055E-09  0.1948E-10  0.1948E-10
     -9.159  0.2940E-08  0.2940E-08  0.1431E-09  0.1431E-09
     -9.117  0.1952E-07  0.1952E-07  0.9638E-09  0.9638E-09
     -9.075  0.1187E-06  0.1187E-06  0.5956E-08  0.5956E-08
     -9.033  0.6614E-06  0.6614E-06  0.3376E-07  0.3376E-07
     -8.991  0.3375E-05  0.3375E-05  0.1757E-06  0.1757E-06
     -8.949  0.1577E-04  0.1577E-04  0.8388E-06  0.8388E-06
     -8.907  0.6751E-04  0.6751E-04  0.3677E-05  0.3677E-05
     -8.865  0.2647E-03  0.2647E-03  0.1481E-04  0.1481E-04
     -8.823  0.9507E-03  0.9507E-03  0.5478E-04  0.5478E-04
     -8.781  0.3127E-02  0.3127E-02  0.1863E-03  0.1863E-03
     -8.739  0.9423E-02  0.9423E-02  0.5824E-03  0.5824E-03
     -8.697  0.2601E-01  0.2601E-01  0.1676E-02  0.1676E-02
     -8.655  0.6574E-01  0.6574E-01  0.4440E-02  0.4440E-02
     -8.613  0.1522E+00  0.1522E+00  0.1084E-01  0.1084E-01
     -8.571  0.3229E+00  0.3229E+00  0.2442E-01  0.2442E-01
     -8.529  0.6274E+00  0.6274E+00  0.5080E-01  0.5080E-01
     -8.487  0.1117E+01  0.1117E+01  0.9775E-01  0.9775E-01
     -8.444  0.1821E+01  0.1821E+01  0.1743E+00  0.1743E+00
     -8.402  0.2721E+01  0.2721E+01  0.2887E+00  0.2887E+00
     -8.360  0.3727E+01  0.3727E+01  0.4454E+00  0.4454E+00
     -8.318  0.4686E+01  0.4686E+01  0.6424E+00  0.6424E+00
     -8.276  0.5421E+01  0.5421E+01  0.8704E+00  0.8704E+00
     -8.234  0.5805E+01  0.5805E+01  0.1114E+01  0.1114E+01
     -8.192  0.5825E+01  0.5825E+01  0.1359E+01  0.1359E+01
     -8.150  0.5620E+01  0.5620E+01  0.1596E+01  0.1596E+01
     -8.108  0.5446E+01  0.5446E+01  0.1825E+01  0.1825E+01
     -8.066  0.5587E+01  0.5587E+01  0.2059E+01  0.2059E+01
     -8.024  0.6239E+01  0.6239E+01  0.2322E+01  0.2322E+01
     -7.982  0.7411E+01  0.7411E+01  0.2633E+01  0.2633E+01
     -7.940  0.8890E+01  0.8890E+01  0.3007E+01  0.3007E+01
     -7.898  0.1029E+02  0.1029E+02  0.3440E+01  0.3440E+01
     -7.856  0.1119E+02  0.1119E+02  0.3910E+01  0.3910E+01
     -7.814  0.1127E+02  0.1127E+02  0.4384E+01  0.4384E+01
     -7.772  0.1044E+02  0.1044E+02  0.4823E+01  0.4823E+01
     -7.730  0.8887E+01  0.8887E+01  0.5197E+01  0.5197E+01
     -7.688  0.6933E+01  0.6933E+01  0.5488E+01  0.5488E+01
     -7.646  0.4957E+01  0.4957E+01  0.5696E+01  0.5696E+01
     -7.604  0.3247E+01  0.3247E+01  0.5833E+01  0.5833E+01
     -7.562  0.1948E+01  0.1948E+01  0.5915E+01  0.5915E+01
     -7.520  0.1071E+01  0.1071E+01  0.5960E+01  0.5960E+01
     -7.477  0.5391E+00  0.5391E+00  0.5983E+01  0.5983E+01
     -7.435  0.2486E+00  0.2486E+00  0.5993E+01  0.5993E+01
     -7.393  0.1050E+00  0.1050E+00  0.5997E+01  0.5997E+01
     -7.351  0.4077E-01  0.4077E-01  0.5999E+01  0.5999E+01
     -7.309  0.1493E-01  0.1493E-01  0.6000E+01  0.6000E+01
     -7.267  0.6567E-02  0.6567E-02  0.6000E+01  0.6000E+01
     -7.225  0.7614E-02  0.7614E-02  0.6000E+01  0.6000E+01
     -7.183  0.1914E-01  0.1914E-01  0.6001E+01  0.6001E+01
     -7.141  0.5189E-01  0.5189E-01  0.6003E+01  0.6003E+01
     -7.099  0.1310E+00  0.1310E+00  0.6009E+01  0.6009E+01
     -7.057  0.3034E+00  0.3034E+00  0.6022E+01  0.6022E+01
     -7.015  0.6439E+00  0.6439E+00  0.6049E+01  0.6049E+01
     -6.973  0.1251E+01  0.1251E+01  0.6101E+01  0.6101E+01
     -6.931  0.2228E+01  0.2228E+01  0.6195E+01  0.6195E+01
     -6.889  0.3633E+01  0.3633E+01  0.6348E+01  0.6348E+01
     -6.847  0.5428E+01  0.5428E+01  0.6576E+01  0.6576E+01
     -6.805  0.7427E+01  0.7427E+01  0.6888E+01  0.6888E+01
     -6.763  0.9309E+01  0.9309E+01  0.7280E+01  0.7280E+01
     -6.721  0.1069E+02  0.1069E+02  0.7729E+01  0.7729E+01
     -6.679  0.1124E+02  0.1124E+02  0.8201E+01  0.8201E+01
     -6.637  0.1083E+02  0.1083E+02  0.8657E+01  0.8657E+01
     -6.595  0.9555E+01  0.9555E+01  0.9058E+01  0.9058E+01
     -6.553  0.7723E+01  0.7723E+01  0.9383E+01  0.9383E+01
     -6.510  0.5718E+01  0.5718E+01  0.9623E+01  0.9623E+01
     -6.468  0.3878E+01  0.3878E+01  0.9787E+01  0.9787E+01
     -6.426  0.2409E+01  0.2409E+01  0.9888E+01  0.9888E+01
     -6.384  0.1371E+01  0.1371E+01  0.9945E+01  0.9945E+01
     -6.342  0.7147E+00  0.7147E+00  0.9976E+01  0.9976E+01
     -6.300  0.3412E+00  0.3412E+00  0.9990E+01  0.9990E+01
     -6.258  0.1492E+00  0.1492E+00  0.9996E+01  0.9996E+01
     -6.216  0.5979E-01  0.5979E-01  0.9999E+01  0.9999E+01
     -6.174  0.2194E-01  0.2194E-01  0.1000E+02  0.1000E+02
     -6.132  0.7374E-02  0.7374E-02  0.1000E+02  0.1000E+02
     -6.090  0.2270E-02  0.2270E-02  0.1000E+02  0.1000E+02
     -6.048  0.6402E-03  0.6402E-03  0.1000E+02  0.1000E+02
     -6.006  0.1654E-03  0.1654E-03  0.1000E+02  0.1000E+02
     -5.964  0.3915E-04  0.3915E-04  0.1000E+02  0.1000E+02
     -5.922  0.8604E-05  0.8604E-05  0.1000E+02  0.1000E+02
     -5.880  0.2405E-05  0.2405E-05  0.1000E+02  0.1000E+02
     -5.838  0.4106E-05  0.4106E-05  0.1000E+02  0.1000E+02
     -5.796  0.1838E-04  0.1838E-04  0.1000E+02  0.1000E+02
     -5.754  0.8098E-04  0.8098E-04  0.1000E+02  0.1000E+02
     -5.712  0.3276E-03  0.3276E-03  0.1000E+02  0.1000E+02
     -5.670  0.1214E-02  0.1214E-02  0.1000E+02  0.1000E+02
     -5.628  0.4122E-02  0.4122E-02  0.1000E+02  0.1000E+02
     -5.586  0.1282E-01  0.1282E-01  0.1000E+02  0.1000E+02
     -5.544  0.3651E-01  0.3651E-01  0.1000E+02  0.1000E+02
     -5.501  0.9524E-01  0.9524E-01  0.1001E+02  0.1001E+02
     -5.459  0.2276E+00  0.2276E+00  0.1002E+02  0.1002E+02
     -5.417  0.4982E+00  0.4982E+00  0.1004E+02  0.1004E+02
     -5.375  0.9988E+00  0.9988E+00  0.1008E+02  0.1008E+02
     -5.333  0.1834E+01  0.1834E+01  0.1016E+02  0.1016E+02
     -5.291  0.3086E+01  0.3086E+01  0.1029E+02  0.1029E+02
     -5.249  0.4756E+01  0.4756E+01  0.1049E+02  0.1049E+02
     -5.207  0.6713E+01  0.6713E+01  0.1077E+02  0.1077E+02
     -5.165  0.8679E+01  0.8679E+01  0.1113E+02  0.1113E+02
     -5.123  0.1028E+02  0.1028E+02  0.1156E+02  0.1156E+02
     -5.081  0.1115E+02  0.1115E+02  0.1203E+02  0.1203E+02
     -5.039  0.1108E+02  0.1108E+02  0.1250E+02  0.1250E+02
     -4.997  0.1009E+02  0.1009E+02  0.1292E+02  0.1292E+02
     -4.955  0.8412E+01  0.8412E+01  0.1328E+02  0.1328E+02
     -4.913  0.6425E+01  0.6425E+01  0.1355E+02  0.1355E+02
     -4.871  0.4495E+01  0.4495E+01  0.1374E+02  0.1374E+02
     -4.829  0.2881E+01  0.2881E+01  0.1386E+02  0.1386E+02
     -4.787  0.1691E+01  0.1691E+01  0.1393E+02  0.1393E+02
     -4.745  0.9095E+00  0.9095E+00  0.1397E+02  0.1397E+02
     -4.703  0.4484E+00  0.4484E+00  0.1399E+02  0.1399E+02
     -4.661  0.2037E+00  0.2037E+00  0.1399E+02  0.1399E+02
     -4.619  0.8853E-01  0.8853E-01  0.1400E+02  0.1400E+02
     -4.577  0.4619E-01  0.4619E-01  0.1400E+02  0.1400E+02
     -4.534  0.4973E-01  0.4973E-01  0.1400E+02  0.1400E+02
     -4.492  0.9795E-01  0.9795E-01  0.1401E+02  0.1401E+02
     -4.450  0.2119E+00  0.2119E+00  0.1402E+02  0.1402E+02
     -4.408  0.4314E+00  0.4314E+00  0.1403E+02  0.1403E+02
     -4.366  0.8074E+00  0.8074E+00  0.1407E+02  0.1407E+02
     -4.324  0.1385E+01  0.1385E+01  0.1413E+02  0.1413E+02
     -4.282  0.2176E+01  0.2176E+01  0.1422E+02  0.1422E+02
     -4.240  0.3132E+01  0.3132E+01  0.1435E+02  0.1435E+02
     -4.198  0.4130E+01  0.4130E+01  0.1452E+02  0.1452E+02
     -4.156  0.4988E+01  0.4988E+01  0.1473E+02  0.1473E+02
     -4.114  0.5518E+01  0.5518E+01  0.1496E+02  0.1496E+02
     -4.072  0.5591E+01  0.5591E+01  0.1520E+02  0.1520E+02
     -4.030  0.5190E+01  0.5190E+01  0.1542E+02  0.1542E+02
     -3.988  0.4413E+01  0.4413E+01  0.1560E+02  0.1560E+02
     -3.946  0.3437E+01  0.3437E+01  0.1575E+02  0.1575E+02
     -3.904  0.2452E+01  0.2452E+01  0.1585E+02  0.1585E+02
     -3.862  0.1602E+01  0.1602E+01  0.1592E+02  0.1592E+02
     -3.820  0.9592E+00  0.9592E+00  0.1596E+02  0.1596E+02
     -3.778  0.5259E+00  0.5259E+00  0.1598E+02  0.1598E+02
     -3.736  0.2641E+00  0.2641E+00  0.1599E+02  0.1599E+02
     -3.694  0.1215E+00  0.1215E+00  0.1600E+02  0.1600E+02
     -3.652  0.5121E-01  0.5121E-01  0.1600E+02  0.1600E+02
     -3.610  0.1977E-01  0.1977E-01  0.1600E+02  0.1600E+02
     -3.567  0.6989E-02  0.6989E-02  0.1600E+02  0.1600E+02
     -3.525  0.2264E-02  0.2264E-02  0.1600E+02  0.1600E+02
     -3.483  0.6715E-03  0.6715E-03  0.1600E+02  0.1600E+02
     -3.441  0.1824E-03  0.1824E-03  0.1600E+02  0.1600E+02
     -3.399  0.4541E-04  0.4541E-04  0.1600E+02  0.1600E+02
     -3.357  0.1035E-04  0.1035E-04  0.1600E+02  0.1600E+02
     -3.315  0.2161E-05  0.2161E-05  0.1600E+02  0.1600E+02
     -3.273  0.4133E-06  0.4133E-06  0.1600E+02  0.1600E+02
     -3.231  0.7240E-07  0.7240E-07  0.1600E+02  0.1600E+02
     -3.189  0.1162E-07  0.1162E-07  0.1600E+02  0.1600E+02
     -3.147  0.1707E-08  0.1707E-08  0.1600E+02  0.1600E+02
     -3.105  0.2297E-09  0.2297E-09  0.1600E+02  0.1600E+02
     -3.063  0.2832E-10  0.2832E-10  0.1600E+02  0.1600E+02
     -3.021  0.3195E-11  0.3195E-11  0.1600E+02  0.1600E+02
     -2.979  0.3327E-12  0.3327E-12  0.1600E+02  0.1600E+02
     -2.937  0.3169E-13  0.3169E-13  0.1600E+02  0.1600E+02
     -2.895  0.0000E+00  0.0000E+00  0.1600E+02  0.1600E+02
     -2.853  0.0000E+00  0.0000E+00  0.1600E+02  0.1600E+02
     -2.811  0.0000E+00  0.0000E+00  0.1600E+02  0.1600E+02
     -2.769  0.0000E+00  0.0000E+00  0.1600E+02  0.1600E+02
     -2.727  0.0000E+00  0.0000E+00  0.1600E+02  0.1600E+02
     -2.685  0.0000E+00  0.0000E+00  0.1600E+02  0.1600E+02
     -2.643  0.0000E+00  0.0000E+00  0.1600E+02  0.1600E+02
     -2.600  0.0000E+00  0.0000E+00  0.1600E+02  0.1600E+02
     -2.558  0.0000E+00  0.0000E+00  0.1600E+02  0.1600E+02
     -2.516  0.0000E+00  0.0000E+00  0.1600E+02  0.1600E+02
     -2.474  0.0000E+00  0.0000E+00  0.1600E+02  0.1600E+02
     -2.432  0.0000E+00  0.0000E+00  0.1600E+02  0.1600E+02
     -2.390  0.0000E+00  0.0000E+00  0.1600E+02  0.1600E+02
     -2.348  0.0000E+00  0.0000E+00  0.1600E+02  0.1600E+02
     -2.306  0.0000E+00  0.0000E+00  0.1600E+02  0.1600E+02
     -2.264  0.0000E+00  0.0000E+00  0.1600E+02  0.1600E+02
     -2.222  0.0000E+00  0.0000E+00  0.1600E+02  0.1600E+02
     -2.180  0.0000E+00  0.0000E+00  0.1600E+02  0.1600E+02
     -2.138  0.0000E+00  0.0000E+00  0.1600E+02  0.1600E+02
     -2.096  0.0000E+00  0.0000E+00  0.1600E+02  0.1600E+02
     -2.054  0.0000E+00  0.0000E+00  0.1600E+02  0.1600E+02
     -2.012  0.0000E+00  0.0000E+00  0.1600E+02  0.1600E+02
     -1.970  0.0000E+00  0.0000E+00  0.1600E+02  0.1600E+02
     -1.928  0.0000E+00  0.0000E+00  0.1600E+02  0.1600E+02
     -1.886  0.0000E+00  0.0000E+00  0.1600E+02  0.1600E+02
     -1.844  0.0000E+00  0.0000E+00  0.1600E+02  0.1600E+02
     -1.802  0.0000E+00  0.0000E+00  0.1600E+02  0.1600E+02
     -1.760  0.0000E+00  0.0000E+00  0.1600E+02  0.1600E+02
     -1.718  0.0000E+00  0.0000E+00  0.1600E+02  0.1600E+02
     -1.676  0.0000E+00  0.0000E+00  0.1600E+02  0.1600E+02
     -1.633  0.0000E+00  0.0000E+00  0.1600E+02  0.1600E+02
     -1.591  0.0000E+00  0.0000E+00  0.1600E+02  0.1600E+02
     -1.549  0.0000E+00  0.0000E+00  0.1600E+02  0.1600E+02
     -1.507  0.0000E+00  0.0000E+00  0.1600E+02  0.1600E+02
     -1.465  0.0000E+00  0.0000E+00  0.1600E+02  0.1600E+02
     -1.423  0.0000E+00  0.0000E+00  0.1600E+02  0.1600E+02
     -1.381  0.0000E+00  0.0000E+00  0.1600E+02  0.1600E+02
     -1.339  0.0000E+00  0.0000E+00  0.1600E+02  0.1600E+02
     -1.297  0.2641E-14  0.2641E-14  0.1600E+02  0.1600E+02
     -1.255  0.4225E-13  0.4489E-13  0.1600E+02  0.1600E+02
     -1.213  0.4727E-12  0.4806E-12  0.1600E+02  0.1600E+02
     -1.171  0.4663E-11  0.4785E-11  0.1600E+02  0.1600E+02
     -1.129  0.4242E-10  0.4343E-10  0.1600E+02  0.1600E+02
     -1.087  0.3533E-09  0.3612E-09  0.1600E+02  0.1600E+02
     -1.045  0.2695E-08  0.2752E-08  0.1600E+02  0.1600E+02
     -1.003  0.1883E-07  0.1921E-07  0.1600E+02  0.1600E+02
     -0.961  0.1206E-06  0.1229E-06  0.1600E+02  0.1600E+02
     -0.919  0.7070E-06  0.7197E-06  0.1600E+02  0.1600E+02
     -0.877  0.3798E-05  0.3862E-05  0.1600E+02  0.1600E+02
     -0.835  0.1869E-04  0.1899E-04  0.1600E+02  0.1600E+02
     -0.793  0.8429E-04  0.8552E-04  0.1600E+02  0.1600E+02
     -0.751  0.3482E-03  0.3529E-03  0.1600E+02  0.1600E+02
     -0.709  0.1318E-02  0.1334E-02  0.1600E+02  0.1600E+02
     -0.666  0.4568E-02  0.4620E-02  0.1600E+02  0.1600E+02
     -0.624  0.1451E-01  0.1466E-01  0.1600E+02  0.1600E+02
     -0.582  0.4221E-01  0.4261E-01  0.1600E+02  0.1600E+02
     -0.540  0.1125E+00  0.1135E+00  0.1601E+02  0.1601E+02
     -0.498  0.2748E+00  0.2769E+00  0.1602E+02  0.1602E+02
     -0.456  0.6147E+00  0.6189E+00  0.1604E+02  0.1605E+02
     -0.414  0.1260E+01  0.1268E+01  0.1610E+02  0.1610E+02
     -0.372  0.2366E+01  0.2378E+01  0.1620E+02  0.1620E+02
     -0.330  0.4071E+01  0.4088E+01  0.1637E+02  0.1637E+02
     -0.288  0.6416E+01  0.6438E+01  0.1664E+02  0.1664E+02
     -0.246  0.9265E+01  0.9289E+01  0.1703E+02  0.1703E+02
     -0.204  0.1226E+02  0.1228E+02  0.1754E+02  0.1755E+02
     -0.162  0.1486E+02  0.1488E+02  0.1817E+02  0.1817E+02
     -0.120  0.1651E+02  0.1651E+02  0.1886E+02  0.1887E+02
     -0.078  0.1681E+02  0.1680E+02  0.1957E+02  0.1957E+02
     -0.036  0.1571E+02  0.1570E+02  0.2023E+02  0.2023E+02
      0.006  0.1352E+02  0.1350E+02  0.2080E+02  0.2080E+02
      0.048  0.1080E+02  0.1078E+02  0.2125E+02  0.2125E+02
      0.090  0.8170E+01  0.8155E+01  0.2160E+02  0.2160E+02
      0.132  0.6117E+01  0.6111E+01  0.2185E+02  0.2185E+02
      0.174  0.4892E+01  0.4896E+01  0.2206E+02  0.2206E+02
      0.216  0.4484E+01  0.4495E+01  0.2225E+02  0.2225E+02
      0.258  0.4680E+01  0.4694E+01  0.2244E+02  0.2245E+02
      0.301  0.5154E+01  0.5168E+01  0.2266E+02  0.2266E+02
      0.343  0.5573E+01  0.5581E+01  0.2289E+02  0.2290E+02
      0.385  0.5683E+01  0.5681E+01  0.2313E+02  0.2314E+02
      0.427  0.5368E+01  0.5358E+01  0.2336E+02  0.2336E+02
      0.469  0.4665E+01  0.4649E+01  0.2356E+02  0.2356E+02
      0.511  0.3720E+01  0.3700E+01  0.2371E+02  0.2371E+02
      0.553  0.2719E+01  0.2700E+01  0.2383E+02  0.2383E+02
      0.595  0.1820E+01  0.1805E+01  0.2390E+02  0.2390E+02
      0.637  0.1117E+01  0.1105E+01  0.2395E+02  0.2395E+02
      0.679  0.6274E+00  0.6199E+00  0.2398E+02  0.2398E+02
      0.721  0.3229E+00  0.3185E+00  0.2399E+02  0.2399E+02
      0.763  0.1522E+00  0.1499E+00  0.2400E+02  0.2400E+02
      0.805  0.6574E-01  0.6463E-01  0.2400E+02  0.2400E+02
      0.847  0.2601E-01  0.2552E-01  0.2400E+02  0.2400E+02
      0.889  0.9423E-02  0.9232E-02  0.2400E+02  0.2400E+02
      0.931  0.3127E-02  0.3059E-02  0.2400E+02  0.2400E+02
      0.973  0.9507E-03  0.9283E-03  0.2400E+02  0.2400E+02
      1.015  0.2647E-03  0.2580E-03  0.2400E+02  0.2400E+02
      1.057  0.6751E-04  0.6570E-04  0.2400E+02  0.2400E+02
      1.099  0.1577E-04  0.1532E-04  0.2400E+02  0.2400E+02
      1.141  0.3375E-05  0.3273E-05  0.2400E+02  0.2400E+02
      1.183  0.6614E-06  0.6404E-06  0.2400E+02  0.2400E+02
      1.225  0.1187E-06  0.1148E-06  0.2400E+02  0.2400E+02
      1.268  0.1952E-07  0.1884E-07  0.2400E+02  0.2400E+02
      1.310  0.2940E-08  0.2832E-08  0.2400E+02  0.2400E+02
      1.352  0.4055E-09  0.3899E-09  0.2400E+02  0.2400E+02
      1.394  0.5122E-10  0.4917E-10  0.2400E+02  0.2400E+02
      1.436  0.5926E-11  0.5683E-11  0.2400E+02  0.2400E+02
      1.478  0.6338E-12  0.6021E-12  0.2400E+02  0.2400E+02
      1.520  0.5809E-13  0.5809E-13  0.2400E+02  0.2400E+02
      1.562  0.5281E-14  0.5281E-14  0.2400E+02  0.2400E+02
      1.604  0.0000E+00  0.0000E+00  0.2400E+02  0.2400E+02
      1.646  0.0000E+00  0.0000E+00  0.2400E+02  0.2400E+02
      1.688  0.0000E+00  0.0000E+00  0.2400E+02  0.2400E+02
      1.730  0.0000E+00  0.0000E+00  0.2400E+02  0.2400E+02
      1.772  0.0000E+00  0.0000E+00  0.2400E+02  0.2400E+02
      1.814  0.0000E+00  0.0000E+00  0.2400E+02  0.2400E+02
      1.856  0.0000E+00  0.0000E+00  0.2400E+02  0.2400E+02
      1.898  0.0000E+00  0.0000E+00  0.2400E+02  0.2400E+02
      1.940  0.0000E+00  0.0000E+00  0.2400E+02  0.2400E+02
      1.982  0.0000E+00  0.0000E+00  0.2400E+02  0.2400E+02
      2.024  0.0000E+00  0.0000E+00  0.2400E+02  0.2400E+02
      2.066  0.0000E+00  0.0000E+00  0.2400E+02  0.2400E+02
      2.108  0.0000E+00  0.0000E+00  0.2400E+02  0.2400E+02
      2.150  0.0000E+00  0.0000E+00  0.2400E+02  0.2400E+02
      2.192  0.0000E+00  0.0000E+00  0.2400E+02  0.2400E+02
      2.234  0.0000E+00  0.0000E+00  0.2400E+02  0.2400E+02
      2.277  0.0000E+00  0.0000E+00  0.2400E+02  0.2400E+02
      2.319  0.0000E+00  0.0000E+00  0.2400E+02  0.2400E+02
      2.361  0.0000E+00  0.0000E+00  0.2400E+02  0.2400E+02
