    8    8    1    2
  0.4950000E+03  0.1500000E-08  0.1500000E-08  0.1760000E-08  0.5000000E-15
  1.000000000000000E-004
  CAR 
 unknown system                          
      8      1     12
 
  0.0000000E+00  0.0000000E+00  0.0000000E+00  0.1000000E+01
    1       -8.252346     -8.252346   1.000000   1.000000
    2       -7.848371     -7.848371   1.000000   1.000000
    3       -7.848371     -7.848371   1.000000   1.000000
    4       -6.696567     -6.696567   0.500000   0.500000
    5       -6.696567     -6.696567   0.500000   0.500000
    6       -5.084026     -5.084026   0.000000   0.000000
    7       -5.084026     -5.084026   0.000000   0.000000
    8       -4.107682     -4.107682   0.000000   0.000000
    9       -0.120362     -0.121183   0.000000   0.000000
   10       -0.107370     -0.107472   0.000000   0.000000
   11       -0.107370     -0.107472   0.000000   0.000000
   12        0.360626      0.359815   0.000000   0.000000
