       N       E                     dE             d eps       ncg     rms          rms(c)
DAV:   1     0.144931145710E+02    0.14493E+02   -0.75880E+02    48   0.165E+02
DAV:   2    -0.657499977833E+01   -0.21068E+02   -0.20997E+02    96   0.492E+01
DAV:   3    -0.808705958428E+01   -0.15121E+01   -0.13523E+01    60   0.168E+01
DAV:   4    -0.818274601163E+01   -0.95686E-01   -0.85240E-01    48   0.323E+00
DAV:   5    -0.818388762400E+01   -0.11416E-02   -0.11401E-02    80   0.350E-01    0.137E+00
DAV:   6    -0.821073788917E+01   -0.26850E-01   -0.10326E-02    56   0.493E-01    0.834E-01
DAV:   7    -0.824324579001E+01   -0.32508E-01   -0.22310E-02    56   0.728E-01    0.628E-02
DAV:   8    -0.824435709060E+01   -0.11113E-02   -0.40459E-04    64   0.121E-01    0.151E-02
DAV:   9    -0.824439467417E+01   -0.37584E-04   -0.30289E-05    64   0.311E-02    0.299E-03
DAV:  10    -0.824441181227E+01   -0.17138E-04   -0.27591E-06    60   0.659E-03    0.199E-03
DAV:  11    -0.824442283956E+01   -0.11027E-04   -0.11633E-06    44   0.426E-03    0.987E-04
DAV:  12    -0.824443382852E+01   -0.10989E-04   -0.43628E-07    32   0.258E-03    0.895E-04
DAV:  13    -0.824444831577E+01   -0.14487E-04   -0.49001E-07    32   0.241E-03    0.325E-04
DAV:  14    -0.824445365448E+01   -0.53387E-05   -0.10799E-07    32   0.122E-03    0.360E-04
DAV:  15    -0.824446092268E+01   -0.72682E-05   -0.19935E-07    32   0.151E-03    0.117E-04
DAV:  16    -0.824446365920E+01   -0.27365E-05   -0.51473E-08    32   0.807E-04    0.149E-04
DAV:  17    -0.824446675549E+01   -0.30963E-05   -0.58197E-08    32   0.805E-04    0.445E-05
DAV:  18    -0.824446760540E+01   -0.84991E-06   -0.14374E-08    32   0.438E-04
   1 F= -.82444676E+01 E0= -.81316297E+01  d E =-.225676E+00  mag=    -0.0000
