 vasp.5.4.4.18Apr17-6-g9f103f2a35 (build Aug 24 2024 05:40:03) complex          
  
 executed on           IFC22_IMPI date 2024.11.22  21:44:58
 running on    4 total cores
 distrk:  each k-point on    4 cores,    1 groups
 distr:  one band on NCORES_PER_BAND=   1 cores,    4 groups


--------------------------------------------------------------------------------------------------------


 INCAR:
 POTCAR:    PAW_PBE H 15Jun2001                   
 POTCAR:    PAW_PBE H 15Jun2001                   
   VRHFIN =H: ultrasoft test                                                    
   LEXCH  = PE                                                                  
   EATOM  =    12.4884 eV,    0.9179 Ry                                         
                                                                                
   TITEL  = PAW_PBE H 15Jun2001                                                 
   LULTRA =        F    use ultrasoft PP ?                                      
   IUNSCR =        0    unscreen: 0-lin 1-nonlin 2-no                           
   RPACOR =    0.000    partial core radius                                     
   POMASS =    1.000; ZVAL   =    1.000    mass and valenz                      
   RCORE  =    1.100    outmost cutoff radius                                   
   RWIGS  =    0.700; RWIGS  =    0.370    wigner-seitz radius (au A)           
   ENMAX  =  250.000; ENMIN  =  200.000 eV                                      
   RCLOC  =    0.701    cutoff for local pot                                    
   LCOR   =        T    correct aug charges                                     
   LPAW   =        T    paw PP                                                  
   EAUG   =  400.000                                                            
   RMAX   =    1.123    core radius for proj-oper                               
   RAUG   =    1.200    factor for augmentation sphere                          
   RDEP   =    1.112    radius for radial grids                                 
   RDEPT  =    0.926    core radius for aug-charge                              
                                                                                
   Atomic configuration                                                         
    2 entries                                                                   
     n  l   j            E        occ.                                          
     1  0  0.50        -6.4927   1.0000                                         
     2  1  0.50        -3.4015   0.0000                                         
   Description                                                                  
     l       E           TYP  RCUT    TYP  RCUT                                 
     0     -6.4927494     23  1.100                                             
     0      6.8029130     23  1.100                                             
     1     -4.0817478     23  1.100                                             
  local pseudopotential read in
  atomic valenz-charges read in
  non local Contribution for L=           0  read in
    real space projection operators read in
  non local Contribution for L=           0  read in
    real space projection operators read in
  non local Contribution for L=           1  read in
    real space projection operators read in
    PAW grid and wavefunctions read in
 
   number of l-projection  operators is LMAX  =           3
   number of lm-projection operators is LMMAX =           5
 
  PAW_PBE H 15Jun2001                   :
 energy of atom  1       EATOM=  -12.4884
 kinetic energy error for atom=    0.0426 (will be added to EATOM!!)
 
 
 POSCAR: H8                                      
  positions in direct lattice
  No initial velocities read in
 exchange correlation table for  LEXCH =        8
   RHO(1)=    0.500       N(1)  =     2000
   RHO(2)=  100.500       N(2)  =     4000
 


--------------------------------------------------------------------------------------------------------


 ion  position               nearest neighbor table
   1  0.000  0.000  0.000-
   2  0.000  0.000  0.125-
   3  0.000  0.000  0.250-
   4  0.000  0.000  0.375-
   5  0.000  0.000  0.500-
   6  0.000  0.000  0.625-
   7  0.000  0.000  0.750-
   8  0.000  0.000  0.875-
 
  LATTYP: Found a simple tetragonal cell.
 ALAT       =    15.0000000000
 C/A-ratio  =     1.1733333333
  
  Lattice vectors:
  
 A1 = (  15.0000000000,   0.0000000000,   0.0000000000)
 A2 = (   0.0000000000,  15.0000000000,   0.0000000000)
 A3 = (   0.0000000000,   0.0000000000,  17.6000000000)


Analysis of symmetry for initial positions (statically):
=====================================================================
 Subroutine PRICEL returns following result:
 
  LATTYP: Found a simple tetragonal cell.
 ALAT       =    15.0000000000
 C/A-ratio  =     0.1466666667
  
  Lattice vectors:
  
 A1 = (  15.0000000000,   0.0000000000,   0.0000000000)
 A2 = (   0.0000000000,  15.0000000000,   0.0000000000)
 A3 = (   0.0000000000,   0.0000000000,   2.2000000000)
 
   8 primitive cells build up your supercell.
 

 Routine SETGRP: Setting up the symmetry group for a 
 simple tetragonal supercell.


 Subroutine GETGRP returns: Found 16 space group operations
 (whereof 16 operations were pure point group operations)
 out of a pool of 16 trial point group operations.


The static configuration has the point symmetry D_4h.


Analysis of symmetry for dynamics (positions and initial velocities):
=====================================================================
 Subroutine PRICEL returns following result:
 
  LATTYP: Found a simple tetragonal cell.
 ALAT       =    15.0000000000
 C/A-ratio  =     0.1466666667
  
  Lattice vectors:
  
 A1 = (  15.0000000000,   0.0000000000,   0.0000000000)
 A2 = (   0.0000000000,  15.0000000000,   0.0000000000)
 A3 = (   0.0000000000,   0.0000000000,   2.2000000000)
 
   8 primitive cells build up your supercell.
 

 Routine SETGRP: Setting up the symmetry group for a 
 simple tetragonal supercell.


 Subroutine GETGRP returns: Found 16 space group operations
 (whereof 16 operations were pure point group operations)
 out of a pool of 16 trial point group operations.


The dynamic configuration has the point symmetry D_4h.


Analysis of structural, dynamic, and magnetic symmetry:
=====================================================================
 Subroutine PRICEL returns following result:
 
  LATTYP: Found a simple tetragonal cell.
 ALAT       =    15.0000000000
 C/A-ratio  =     0.1466666667
  
  Lattice vectors:
  
 A1 = (  15.0000000000,   0.0000000000,   0.0000000000)
 A2 = (   0.0000000000,  15.0000000000,   0.0000000000)
 A3 = (   0.0000000000,   0.0000000000,   2.2000000000)
 
   8 primitive cells build up your supercell.
 

 Routine SETGRP: Setting up the symmetry group for a 
 simple tetragonal supercell.


 Subroutine GETGRP returns: Found 16 space group operations
 (whereof 16 operations were pure point group operations)
 out of a pool of 16 trial point group operations.


The magnetic configuration has the point symmetry D_4h.


 Subroutine INISYM returns: Found 16 space group operations
 (whereof 16 operations are pure point group operations),
 and found     8 'primitive' translations

 
 
 KPOINTS: Automatic kpoint scheme                 

Automatic generation of k-mesh.
Space group operators:
 irot       det(A)        alpha          n_x          n_y          n_z        tau_x        tau_y        tau_z
    1     1.000000     0.000001     1.000000     0.000000     0.000000     0.000000     0.000000     0.000000
    2    -1.000000     0.000001     1.000000     0.000000     0.000000     0.000000     0.000000     0.000000
    3     1.000000    90.000000     0.000000     0.000000    -1.000000     0.000000     0.000000     0.000000
    4    -1.000000    90.000000     0.000000     0.000000    -1.000000     0.000000     0.000000     0.000000
    5     1.000000   180.000000    -0.000000    -0.000000     1.000000     0.000000     0.000000     0.000000
    6    -1.000000   180.000000    -0.000000    -0.000000     1.000000     0.000000     0.000000     0.000000
    7     1.000000    90.000000    -0.000000    -0.000000     1.000000     0.000000     0.000000     0.000000
    8    -1.000000    90.000000    -0.000000    -0.000000     1.000000     0.000000     0.000000     0.000000
    9     1.000000   180.000000     0.000000     1.000000     0.000000     0.000000     0.000000     0.000000
   10    -1.000000   180.000000     0.000000     1.000000     0.000000     0.000000     0.000000     0.000000
   11     1.000000   180.000000     0.707107     0.707107     0.000000     0.000000     0.000000     0.000000
   12    -1.000000   180.000000     0.707107     0.707107     0.000000     0.000000     0.000000     0.000000
   13     1.000000   180.000000     1.000000    -0.000000     0.000000     0.000000     0.000000     0.000000
   14    -1.000000   180.000000     1.000000    -0.000000     0.000000     0.000000     0.000000     0.000000
   15     1.000000   180.000000     0.707107    -0.707107     0.000000     0.000000     0.000000     0.000000
   16    -1.000000   180.000000     0.707107    -0.707107     0.000000     0.000000     0.000000     0.000000
 
 Subroutine IBZKPT returns following result:
 ===========================================
 
 Found      1 irreducible k-points:
 
 Following reciprocal coordinates:
            Coordinates               Weight
  0.000000  0.000000  0.000000      1.000000
 
 Following cartesian coordinates:
            Coordinates               Weight
  0.000000  0.000000  0.000000      1.000000
 


--------------------------------------------------------------------------------------------------------




 Dimension of arrays:
   k-points           NKPTS =      1   k-points in BZ     NKDIM =      1   number of bands    NBANDS=     12
   number of dos      NEDOS =    301   number of ions     NIONS =      8
   non local maximal  LDIM  =      3   non local SUM 2l+1 LMDIM =      5
   total plane-waves  NPLWV = 327680
   max r-space proj   IRMAX =      1   max aug-charges    IRDMAX=    602
   dimension x,y,z NGX =    64 NGY =   64 NGZ =   80
   dimension x,y,z NGXF=   128 NGYF=  128 NGZF=  160
   support grid    NGXF=   128 NGYF=  128 NGZF=  160
   ions per type =               8
   NGX,Y,Z   is equivalent  to a cutoff of   7.09,  7.09,  7.56 a.u.
   NGXF,Y,Z  is equivalent  to a cutoff of  14.19, 14.19, 15.11 a.u.

 SYSTEM =  unknown system                          
 POSCAR =  H8                                      

 Startparameter for this run:
   NWRITE =      2    write-flag & timer
   PREC   = normal    normal or accurate (medium, high low for compatibility)
   ISTART =      0    job   : 0-new  1-cont  2-samecut
   ICHARG =      2    charge: 1-file 2-atom 10-const
   ISPIN  =      2    spin polarized calculation?
   LNONCOLLINEAR =      F non collinear calculations
   LSORBIT =      F    spin-orbit coupling
   INIWAV =      1    electr: 0-lowe 1-rand  2-diag
   LASPH  =      F    aspherical Exc in radial PAW
   METAGGA=      F    non-selfconsistent MetaGGA calc.

 Electronic Relaxation 1
   ENCUT  =  300.0 eV  22.05 Ry    4.70 a.u.  21.18 21.18 24.86*2*pi/ulx,y,z
   ENINI  =  300.0     initial cutoff
   ENAUG  =  400.0 eV  augmentation charge cutoff
   NELM   =    100;   NELMIN=  2; NELMDL= -5     # of ELM steps 
   EDIFF  = 0.1E-05   stopping-criterion for ELM
   LREAL  =      F    real-space projection
   NLSPLINE    = F    spline interpolate recip. space projectors
   LCOMPAT=      F    compatible to vasp.4.4
   GGA_COMPAT  = T    GGA compatible to vasp.4.4-vasp.4.6
   LMAXPAW     = -100 max onsite density
   LMAXMIX     =    2 max onsite mixed and CHGCAR
   VOSKOWN=      0    Vosko Wilk Nusair interpolation
   ROPT   =    0.00000
 Ionic relaxation
   EDIFFG = 0.1E-04   stopping-criterion for IOM
   NSW    =      0    number of steps for IOM
   NBLOCK =      1;   KBLOCK =      1    inner block; outer block 
   IBRION =     -1    ionic relax: 0-MD 1-quasi-New 2-CG
   NFREE  =      0    steps in history (QN), initial steepest desc. (CG)
   ISIF   =      2    stress and relaxation
   IWAVPR =     10    prediction:  0-non 1-charg 2-wave 3-comb
   ISYM   =      2    0-nonsym 1-usesym 2-fastsym
   LCORR  =      T    Harris-Foulkes like correction to forces

   POTIM  = 0.5000    time-step for ionic-motion
   TEIN   =    0.0    initial temperature
   TEBEG  =    0.0;   TEEND  =   0.0 temperature during run
   SMASS  =  -3.00    Nose mass-parameter (am)
   estimated Nose-frequenzy (Omega)   =  0.10E-29 period in steps =****** mass=  -0.514E-26a.u.
   SCALEE = 1.0000    scale energy and forces
   NPACO  =    256;   APACO  = 16.0  distance and # of slots for P.C.
   PSTRESS=    0.0 pullay stress

  Mass of Ions in am
   POMASS =   1.00
  Ionic Valenz
   ZVAL   =   1.00
  Atomic Wigner-Seitz radii
   RWIGS  =  -1.00
  virtual crystal weights 
   VCA    =   1.00
   NELECT =       8.0000    total number of electrons
   NUPDOWN=       0.0000    fix difference up-down

 DOS related values:
   EMIN   =  10.00;   EMAX   =-10.00  energy-range for DOS
   EFERMI =   0.00
   ISMEAR =     0;   SIGMA  =   0.20  broadening in eV -4-tet -1-fermi 0-gaus

 Electronic relaxation 2 (details)
   IALGO  =     38    algorithm
   LDIAG  =      T    sub-space diagonalisation (order eigenvalues)
   LSUBROT=      F    optimize rotation matrix (better conditioning)
   TURBO    =      0    0=normal 1=particle mesh
   IRESTART =      0    0=no restart 2=restart with 2 vectors
   NREBOOT  =      0    no. of reboots
   NMIN     =      0    reboot dimension
   EREF     =   0.00    reference energy to select bands
   IMIX   =      4    mixing-type and parameters
     AMIX     =   0.40;   BMIX     =  1.00
     AMIX_MAG =   1.60;   BMIX_MAG =  1.00
     AMIN     =   0.10
     WC   =   100.;   INIMIX=   1;  MIXPRE=   1;  MAXMIX= -45

 Intra band minimization:
   WEIMIN = 0.0000     energy-eigenvalue tresh-hold
   EBREAK =  0.21E-07  absolut break condition
   DEPER  =   0.30     relativ break condition  

   TIME   =   0.40     timestep for ELM

  volume/ion in A,a.u.               =     495.00      3340.42
  Fermi-wavevector in a.u.,A,eV,Ry     =   0.206954  0.391086  0.582735  0.042830
  Thomas-Fermi vector in A             =   0.970042
 
 Write flags
   LWAVE        =      F    write WAVECAR
   LDOWNSAMPLE  =      F    k-point downsampling of WAVECAR
   LCHARG       =      F    write CHGCAR
   LVTOT        =      F    write LOCPOT, total local potential
   LVHAR        =      F    write LOCPOT, Hartree potential only
   LELF         =      F    write electronic localiz. function (ELF)
   LORBIT       =      0    0 simple, 1 ext, 2 COOP (PROOUT), +10 PAW based schemes


 Dipole corrections
   LMONO  =      F    monopole corrections only (constant potential shift)
   LDIPOL =      F    correct potential (dipole corrections)
   IDIPOL =      0    1-x, 2-y, 3-z, 4-all directions 
   EPSILON=  1.0000000 bulk dielectric constant

 Exchange correlation treatment:
   GGA     =    --    GGA type
   LEXCH   =     8    internal setting for exchange type
   VOSKOWN=      0    Vosko Wilk Nusair interpolation
   LHFCALC =     F    Hartree Fock is set to
   LHFONE  =     F    Hartree Fock one center treatment
   AEXX    =    0.0000 exact exchange contribution

 Linear response parameters
   LEPSILON=     F    determine dielectric tensor
   LRPA    =     F    only Hartree local field effects (RPA)
   LNABLA  =     F    use nabla operator in PAW spheres
   LVEL    =     F    velocity operator in full k-point grid
   LINTERFAST=   F  fast interpolation
   KINTER  =     0    interpolate to denser k-point grid
   CSHIFT  =0.1000    complex shift for real part using Kramers Kronig
   OMEGAMAX=  -1.0    maximum frequency
   DEG_THRESHOLD= 0.2000000E-02 threshold for treating states as degnerate
   RTIME   =   -0.100 relaxation time in fs
  (WPLASMAI=    0.000 imaginary part of plasma frequency in eV, 0.658/RTIME)
   DFIELD  = 0.0000000 0.0000000 0.0000000 field for delta impulse in time
 
 Orbital magnetization related:
   ORBITALMAG=     F  switch on orbital magnetization
   LCHIMAG   =     F  perturbation theory with respect to B field
   DQ        =  0.001000  dq finite difference perturbation B field
   LLRAUG    =     F  two centre corrections for induced B field



--------------------------------------------------------------------------------------------------------


 Static calculation
 charge density and potential will be updated during run
 spin polarized calculation
 Variant of blocked Davidson
 Davidson routine will perform the subspace rotation
 perform sub-space diagonalisation
    after iterative eigenvector-optimisation
 modified Broyden-mixing scheme, WC =      100.0
 initial mixing is a Kerker type mixing with AMIX =  0.4000 and BMIX =      1.0000
 Hartree-type preconditioning will be used
 using additional bands            8
 reciprocal scheme for non local part
 calculate Harris-corrections to forces 
   (improved forces if not selfconsistent)
 use gradient corrections 
 use of overlap-Matrix (Vanderbilt PP)
 Gauss-broadening in eV      SIGMA  =   0.20


--------------------------------------------------------------------------------------------------------


  energy-cutoff  :      300.00
  volume of cell :     3960.00
      direct lattice vectors                 reciprocal lattice vectors
    15.000000000  0.000000000  0.000000000     0.066666667 -0.000000000  0.000000000
     0.000000000 15.000000000  0.000000000     0.000000000  0.066666667  0.000000000
     0.000000000  0.000000000 17.600000000    -0.000000000 -0.000000000  0.056818182

  length of vectors
    15.000000000 15.000000000 17.600000000     0.066666667  0.066666667  0.056818182


 
 k-points in units of 2pi/SCALE and weight: Automatic kpoint scheme                 
   0.00000000  0.00000000  0.00000000       1.000
 
 k-points in reciprocal lattice and weights: Automatic kpoint scheme                 
   0.00000000  0.00000000  0.00000000       1.000
 
 position of ions in fractional coordinates (direct lattice) 
   0.00000000  0.00000000  0.00000000
   0.00000000  0.00000000  0.12500000
   0.00000000  0.00000000  0.25000000
   0.00000000  0.00000000  0.37500000
   0.00000000  0.00000000  0.50000000
   0.00000000  0.00000000  0.62500000
   0.00000000  0.00000000  0.75000000
   0.00000000  0.00000000  0.87500000
 
 position of ions in cartesian coordinates  (Angst):
   0.00000000  0.00000000  0.00000000
   0.00000000  0.00000000  2.20000000
   0.00000000  0.00000000  4.40000000
   0.00000000  0.00000000  6.60000000
   0.00000000  0.00000000  8.80000000
   0.00000000  0.00000000 11.00000000
   0.00000000  0.00000000 13.20000000
   0.00000000  0.00000000 15.40000000
 


--------------------------------------------------------------------------------------------------------


 k-point  1 :   0.0000 0.0000 0.0000  plane waves:   46733

 maximum and minimum number of plane-waves per node :     46733    46733

 maximum number of plane-waves:     46733
 maximum index in each direction: 
   IXMAX=   21   IYMAX=   21   IZMAX=   24
   IXMIN=  -21   IYMIN=  -21   IZMIN=  -24


 serial   3D FFT for wavefunctions
 parallel 3D FFT for charge:
    minimum data exchange during FFTs selected (reduces bandwidth)


 total amount of memory used by VASP MPI-rank0   139930. kBytes
=======================================================================

   base      :      30000. kBytes
   nonl-proj :       7851. kBytes
   fftplans  :      23580. kBytes
   grid      :      73990. kBytes
   one-center:         19. kBytes
   wavefun   :       4490. kBytes
 
     INWAV:  cpu time    0.0000: real time    0.0000
 Broyden mixing: mesh for mixing (old mesh)
   NGX = 43   NGY = 43   NGZ = 49
  (NGX  =128   NGY  =128   NGZ  =160)
  gives a total of  90601 points

 initial charge density was supplied:
 charge density of overlapping atoms calculated
 number of electron       8.0000000 magnetization       0.0000000
 keeping initial charge density in first step


--------------------------------------------------------------------------------------------------------


 Maximum index for augmentation-charges           91 (set IRDMAX)


--------------------------------------------------------------------------------------------------------


 First call to EWALD:  gamma=   0.112
 Maximum number of real-space cells 3x 3x 3
 Maximum number of reciprocal cells 3x 3x 3

    FEWALD:  cpu time    0.0017: real time    0.0018


--------------------------------------- Iteration      1(   1)  ---------------------------------------


    POTLOK:  cpu time    0.9724: real time    0.9721
    SETDIJ:  cpu time    0.0117: real time    0.0117
     EDDAV:  cpu time    0.6261: real time    0.6259
       DOS:  cpu time    0.0003: real time    0.0003
    --------------------------------------------
      LOOP:  cpu time    1.6105: real time    1.6100

 eigenvalue-minimisations  :    48
 total energy-change (2. order) : 0.1449311E+02  (-0.7588039E+02)
 number of electron       8.0000000 magnetization       0.0000000
 augmentation part        8.0000000 magnetization       0.0000000

 Free energy of the ion-electron system (eV)
  ---------------------------------------------------
  alpha Z        PSCENC =         0.03937240
  Ewald energy   TEWEN  =        25.82161325
  -Hartree energ DENC   =       -88.53555239
  -exchange      EXHF   =         0.00000000
  -V(xc)+E(xc)   XCENC  =        15.53923289
  PAW double counting   =        17.07221949      -17.14324176
  entropy T*S    EENTRO =        -0.00000000
  eigenvalues    EBANDS =       -37.86673238
  atomic energy  EATOM  =        99.56620307
  Solvation  Ediel_sol  =         0.00000000
  ---------------------------------------------------
  free energy    TOTEN  =        14.49311457 eV

  energy without entropy =       14.49311457  energy(sigma->0) =       14.49311457


--------------------------------------------------------------------------------------------------------




--------------------------------------- Iteration      1(   2)  ---------------------------------------


     EDDAV:  cpu time    1.0973: real time    1.0968
       DOS:  cpu time    0.0003: real time    0.0003
    --------------------------------------------
      LOOP:  cpu time    1.0976: real time    1.0971

 eigenvalue-minimisations  :    96
 total energy-change (2. order) :-0.2106811E+02  (-0.2099699E+02)
 number of electron       8.0000000 magnetization       0.0000000
 augmentation part        8.0000000 magnetization       0.0000000

 Free energy of the ion-electron system (eV)
  ---------------------------------------------------
  alpha Z        PSCENC =         0.03937240
  Ewald energy   TEWEN  =        25.82161325
  -Hartree energ DENC   =       -88.53555239
  -exchange      EXHF   =         0.00000000
  -V(xc)+E(xc)   XCENC  =        15.53923289
  PAW double counting   =        17.07221949      -17.14324176
  entropy T*S    EENTRO =        -0.00444020
  eigenvalues    EBANDS =       -58.93040653
  atomic energy  EATOM  =        99.56620307
  Solvation  Ediel_sol  =         0.00000000
  ---------------------------------------------------
  free energy    TOTEN  =        -6.57499978 eV

  energy without entropy =       -6.57055958  energy(sigma->0) =       -6.57277968


--------------------------------------------------------------------------------------------------------




--------------------------------------- Iteration      1(   3)  ---------------------------------------


     EDDAV:  cpu time    0.7458: real time    0.7455
       DOS:  cpu time    0.0003: real time    0.0003
    --------------------------------------------
      LOOP:  cpu time    0.7461: real time    0.7458

 eigenvalue-minimisations  :    60
 total energy-change (2. order) :-0.1512060E+01  (-0.1352323E+01)
 number of electron       8.0000000 magnetization       0.0000000
 augmentation part        8.0000000 magnetization       0.0000000

 Free energy of the ion-electron system (eV)
  ---------------------------------------------------
  alpha Z        PSCENC =         0.03937240
  Ewald energy   TEWEN  =        25.82161325
  -Hartree energ DENC   =       -88.53555239
  -exchange      EXHF   =         0.00000000
  -V(xc)+E(xc)   XCENC  =        15.53923289
  PAW double counting   =        17.07221949      -17.14324176
  entropy T*S    EENTRO =        -0.21498517
  eigenvalues    EBANDS =       -60.23192136
  atomic energy  EATOM  =        99.56620307
  Solvation  Ediel_sol  =         0.00000000
  ---------------------------------------------------
  free energy    TOTEN  =        -8.08705958 eV

  energy without entropy =       -7.87207441  energy(sigma->0) =       -7.97956700


--------------------------------------------------------------------------------------------------------




--------------------------------------- Iteration      1(   4)  ---------------------------------------


     EDDAV:  cpu time    0.6373: real time    0.6371
       DOS:  cpu time    0.0003: real time    0.0003
    --------------------------------------------
      LOOP:  cpu time    0.6376: real time    0.6373

 eigenvalue-minimisations  :    48
 total energy-change (2. order) :-0.9568643E-01  (-0.8523976E-01)
 number of electron       8.0000000 magnetization       0.0000000
 augmentation part        8.0000000 magnetization       0.0000000

 Free energy of the ion-electron system (eV)
  ---------------------------------------------------
  alpha Z        PSCENC =         0.03937240
  Ewald energy   TEWEN  =        25.82161325
  -Hartree energ DENC   =       -88.53555239
  -exchange      EXHF   =         0.00000000
  -V(xc)+E(xc)   XCENC  =        15.53923289
  PAW double counting   =        17.07221949      -17.14324176
  entropy T*S    EENTRO =        -0.22567434
  eigenvalues    EBANDS =       -60.31691862
  atomic energy  EATOM  =        99.56620307
  Solvation  Ediel_sol  =         0.00000000
  ---------------------------------------------------
  free energy    TOTEN  =        -8.18274601 eV

  energy without entropy =       -7.95707167  energy(sigma->0) =       -8.06990884


--------------------------------------------------------------------------------------------------------




--------------------------------------- Iteration      1(   5)  ---------------------------------------


     EDDAV:  cpu time    0.9238: real time    0.9234
       DOS:  cpu time    0.0003: real time    0.0003
    CHARGE:  cpu time    0.2958: real time    0.2957
    MIXING:  cpu time    0.0179: real time    0.0179
    --------------------------------------------
      LOOP:  cpu time    1.2379: real time    1.2373

 eigenvalue-minimisations  :    80
 total energy-change (2. order) :-0.1141612E-02  (-0.1140125E-02)
 number of electron       8.0000010 magnetization      -0.0000000
 augmentation part        0.0926443 magnetization       0.0000007

 Broyden mixing:
  rms(total) = 0.13679E+00    rms(broyden)= 0.13472E+00
  rms(prec ) = 0.14349E+00
  weight for this iteration     100.00

 Free energy of the ion-electron system (eV)
  ---------------------------------------------------
  alpha Z        PSCENC =         0.03937240
  Ewald energy   TEWEN  =        25.82161325
  -Hartree energ DENC   =       -88.53555239
  -exchange      EXHF   =         0.00000000
  -V(xc)+E(xc)   XCENC  =        15.53923289
  PAW double counting   =        17.07221949      -17.14324176
  entropy T*S    EENTRO =        -0.22567583
  eigenvalues    EBANDS =       -60.31805874
  atomic energy  EATOM  =        99.56620307
  Solvation  Ediel_sol  =         0.00000000
  ---------------------------------------------------
  free energy    TOTEN  =        -8.18388762 eV

  energy without entropy =       -7.95821179  energy(sigma->0) =       -8.07104971


--------------------------------------------------------------------------------------------------------




--------------------------------------- Iteration      1(   6)  ---------------------------------------


    POTLOK:  cpu time    1.0144: real time    1.0140
    SETDIJ:  cpu time    0.0123: real time    0.0123
     EDDAV:  cpu time    0.7294: real time    0.7291
       DOS:  cpu time    0.0003: real time    0.0003
    CHARGE:  cpu time    0.2847: real time    0.2846
    MIXING:  cpu time    0.0191: real time    0.0191
    --------------------------------------------
      LOOP:  cpu time    2.0604: real time    2.0595

 eigenvalue-minimisations  :    56
 total energy-change (2. order) :-0.2685027E-01  (-0.1032584E-02)
 number of electron       8.0000010 magnetization       0.0000000
 augmentation part        0.0928455 magnetization       0.0000010

 Broyden mixing:
  rms(total) = 0.83443E-01    rms(broyden)= 0.83313E-01
  rms(prec ) = 0.89000E-01
  weight for this iteration     100.00

 eigenvalues of (default mixing * dielectric matrix)
  average eigenvalue GAMMA=   2.5946
  2.5946

 Free energy of the ion-electron system (eV)
  ---------------------------------------------------
  alpha Z        PSCENC =         0.03937240
  Ewald energy   TEWEN  =        25.82161325
  -Hartree energ DENC   =       -87.97552204
  -exchange      EXHF   =         0.00000000
  -V(xc)+E(xc)   XCENC  =        15.40579888
  PAW double counting   =        17.61475633      -17.67967950
  entropy T*S    EENTRO =        -0.22567583
  eigenvalues    EBANDS =       -60.77760445
  atomic energy  EATOM  =        99.56620307
  Solvation  Ediel_sol  =         0.00000000
  ---------------------------------------------------
  free energy    TOTEN  =        -8.21073789 eV

  energy without entropy =       -7.98506206  energy(sigma->0) =       -8.09789997


--------------------------------------------------------------------------------------------------------




--------------------------------------- Iteration      1(   7)  ---------------------------------------


    POTLOK:  cpu time    1.0064: real time    1.0060
    SETDIJ:  cpu time    0.0124: real time    0.0124
     EDDAV:  cpu time    0.7092: real time    0.7088
       DOS:  cpu time    0.0003: real time    0.0003
    CHARGE:  cpu time    0.2822: real time    0.2821
    MIXING:  cpu time    0.0200: real time    0.0201
    --------------------------------------------
      LOOP:  cpu time    2.0306: real time    2.0296

 eigenvalue-minimisations  :    56
 total energy-change (2. order) :-0.3250790E-01  (-0.2231046E-02)
 number of electron       8.0000010 magnetization       0.0000000
 augmentation part        0.0931075 magnetization       0.0000002

 Broyden mixing:
  rms(total) = 0.62811E-02    rms(broyden)= 0.62263E-02
  rms(prec ) = 0.69942E-02
  weight for this iteration     100.00

 eigenvalues of (default mixing * dielectric matrix)
  average eigenvalue GAMMA=   2.5016
  2.2768  2.7264

 Free energy of the ion-electron system (eV)
  ---------------------------------------------------
  alpha Z        PSCENC =         0.03937240
  Ewald energy   TEWEN  =        25.82161325
  -Hartree energ DENC   =       -87.17539987
  -exchange      EXHF   =         0.00000000
  -V(xc)+E(xc)   XCENC  =        15.19836174
  PAW double counting   =        18.74733301      -18.80370496
  entropy T*S    EENTRO =        -0.22567583
  eigenvalues    EBANDS =       -61.41134861
  atomic energy  EATOM  =        99.56620307
  Solvation  Ediel_sol  =         0.00000000
  ---------------------------------------------------
  free energy    TOTEN  =        -8.24324579 eV

  energy without entropy =       -8.01756996  energy(sigma->0) =       -8.13040787


--------------------------------------------------------------------------------------------------------




--------------------------------------- Iteration      1(   8)  ---------------------------------------


    POTLOK:  cpu time    1.0082: real time    1.0077
    SETDIJ:  cpu time    0.0125: real time    0.0125
     EDDAV:  cpu time    0.7926: real time    0.8044
       DOS:  cpu time    0.0003: real time    0.0003
    CHARGE:  cpu time    0.2831: real time    0.2830
    MIXING:  cpu time    0.0213: real time    0.0212
    --------------------------------------------
      LOOP:  cpu time    2.1180: real time    2.1291

 eigenvalue-minimisations  :    64
 total energy-change (2. order) :-0.1111301E-02  (-0.4045918E-04)
 number of electron       8.0000010 magnetization       0.0000000
 augmentation part        0.0931522 magnetization      -0.0000003

 Broyden mixing:
  rms(total) = 0.15110E-02    rms(broyden)= 0.15048E-02
  rms(prec ) = 0.17684E-02
  weight for this iteration     100.00

 eigenvalues of (default mixing * dielectric matrix)
  average eigenvalue GAMMA=   2.2198
  1.0261  2.6150  3.0184

 Free energy of the ion-electron system (eV)
  ---------------------------------------------------
  alpha Z        PSCENC =         0.03937240
  Ewald energy   TEWEN  =        25.82161325
  -Hartree energ DENC   =       -87.23981264
  -exchange      EXHF   =         0.00000000
  -V(xc)+E(xc)   XCENC  =        15.20566473
  PAW double counting   =        18.77716113      -18.83405069
  entropy T*S    EENTRO =        -0.22567583
  eigenvalues    EBANDS =       -61.35483251
  atomic energy  EATOM  =        99.56620307
  Solvation  Ediel_sol  =         0.00000000
  ---------------------------------------------------
  free energy    TOTEN  =        -8.24435709 eV

  energy without entropy =       -8.01868126  energy(sigma->0) =       -8.13151917


--------------------------------------------------------------------------------------------------------




--------------------------------------- Iteration      1(   9)  ---------------------------------------


    POTLOK:  cpu time    1.0219: real time    1.0215
    SETDIJ:  cpu time    0.0126: real time    0.0126
     EDDAV:  cpu time    0.7847: real time    0.7842
       DOS:  cpu time    0.0003: real time    0.0003
    CHARGE:  cpu time    0.2818: real time    0.2817
    MIXING:  cpu time    0.0242: real time    0.0242
    --------------------------------------------
      LOOP:  cpu time    2.1255: real time    2.1245

 eigenvalue-minimisations  :    64
 total energy-change (2. order) :-0.3758358E-04  (-0.3028920E-05)
 number of electron       8.0000010 magnetization       0.0000000
 augmentation part        0.0931506 magnetization      -0.0000000

 Broyden mixing:
  rms(total) = 0.29913E-03    rms(broyden)= 0.29811E-03
  rms(prec ) = 0.51487E-03
  weight for this iteration     100.00

 eigenvalues of (default mixing * dielectric matrix)
  average eigenvalue GAMMA=   1.9929
  3.0977  2.5789  0.9031  1.3919

 Free energy of the ion-electron system (eV)
  ---------------------------------------------------
  alpha Z        PSCENC =         0.03937240
  Ewald energy   TEWEN  =        25.82161325
  -Hartree energ DENC   =       -87.27400386
  -exchange      EXHF   =         0.00000000
  -V(xc)+E(xc)   XCENC  =        15.21056316
  PAW double counting   =        18.76830334      -18.82537737
  entropy T*S    EENTRO =        -0.22567583
  eigenvalues    EBANDS =       -61.32539283
  atomic energy  EATOM  =        99.56620307
  Solvation  Ediel_sol  =         0.00000000
  ---------------------------------------------------
  free energy    TOTEN  =        -8.24439467 eV

  energy without entropy =       -8.01871884  energy(sigma->0) =       -8.13155676


--------------------------------------------------------------------------------------------------------




--------------------------------------- Iteration      1(  10)  ---------------------------------------


    POTLOK:  cpu time    1.0058: real time    1.0055
    SETDIJ:  cpu time    0.0122: real time    0.0122
     EDDAV:  cpu time    0.7464: real time    0.7461
       DOS:  cpu time    0.0003: real time    0.0003
    CHARGE:  cpu time    0.2833: real time    0.2832
    MIXING:  cpu time    0.0265: real time    0.0265
    --------------------------------------------
      LOOP:  cpu time    2.0746: real time    2.0738

 eigenvalue-minimisations  :    60
 total energy-change (2. order) :-0.1713809E-04  (-0.2759077E-06)
 number of electron       8.0000010 magnetization       0.0000000
 augmentation part        0.0931456 magnetization       0.0000001

 Broyden mixing:
  rms(total) = 0.19885E-03    rms(broyden)= 0.19873E-03
  rms(prec ) = 0.31610E-03
  weight for this iteration     100.00

 eigenvalues of (default mixing * dielectric matrix)
  average eigenvalue GAMMA=   2.0673
  3.1544  2.7138  2.7138  1.0082  0.7461

 Free energy of the ion-electron system (eV)
  ---------------------------------------------------
  alpha Z        PSCENC =         0.03937240
  Ewald energy   TEWEN  =        25.82161325
  -Hartree energ DENC   =       -87.28901081
  -exchange      EXHF   =         0.00000000
  -V(xc)+E(xc)   XCENC  =        15.21200620
  PAW double counting   =        18.74891046      -18.80588668
  entropy T*S    EENTRO =        -0.22567583
  eigenvalues    EBANDS =       -61.31194387
  atomic energy  EATOM  =        99.56620307
  Solvation  Ediel_sol  =         0.00000000
  ---------------------------------------------------
  free energy    TOTEN  =        -8.24441181 eV

  energy without entropy =       -8.01873598  energy(sigma->0) =       -8.13157390


--------------------------------------------------------------------------------------------------------




--------------------------------------- Iteration      1(  11)  ---------------------------------------


    POTLOK:  cpu time    1.0130: real time    1.0126
    SETDIJ:  cpu time    0.0125: real time    0.0125
     EDDAV:  cpu time    0.5992: real time    0.5989
       DOS:  cpu time    0.0003: real time    0.0003
    CHARGE:  cpu time    0.2787: real time    0.2786
    MIXING:  cpu time    0.0258: real time    0.0258
    --------------------------------------------
      LOOP:  cpu time    1.9295: real time    1.9287

 eigenvalue-minimisations  :    44
 total energy-change (2. order) :-0.1102729E-04  (-0.1163261E-06)
 number of electron       8.0000010 magnetization      -0.0000000
 augmentation part        0.0931432 magnetization      -0.0000000

 Broyden mixing:
  rms(total) = 0.98708E-04    rms(broyden)= 0.98681E-04
  rms(prec ) = 0.18356E-03
  weight for this iteration     100.00

 eigenvalues of (default mixing * dielectric matrix)
  average eigenvalue GAMMA=   2.0176
  3.5406  3.0722  2.5900  0.9795  1.2497  0.6737

 Free energy of the ion-electron system (eV)
  ---------------------------------------------------
  alpha Z        PSCENC =         0.03937240
  Ewald energy   TEWEN  =        25.82161325
  -Hartree energ DENC   =       -87.30021559
  -exchange      EXHF   =         0.00000000
  -V(xc)+E(xc)   XCENC  =        15.21331513
  PAW double counting   =        18.74000785      -18.79697338
  entropy T*S    EENTRO =        -0.22567583
  eigenvalues    EBANDS =       -61.30206973
  atomic energy  EATOM  =        99.56620307
  Solvation  Ediel_sol  =         0.00000000
  ---------------------------------------------------
  free energy    TOTEN  =        -8.24442284 eV

  energy without entropy =       -8.01874701  energy(sigma->0) =       -8.13158492


--------------------------------------------------------------------------------------------------------




--------------------------------------- Iteration      1(  12)  ---------------------------------------


    POTLOK:  cpu time    1.0116: real time    1.0112
    SETDIJ:  cpu time    0.0123: real time    0.0123
     EDDAV:  cpu time    0.4877: real time    0.4875
       DOS:  cpu time    0.0003: real time    0.0003
    CHARGE:  cpu time    0.2798: real time    0.2797
    MIXING:  cpu time    0.0274: real time    0.0275
    --------------------------------------------
      LOOP:  cpu time    1.8192: real time    1.8185

 eigenvalue-minimisations  :    32
 total energy-change (2. order) :-0.1098896E-04  (-0.4362794E-07)
 number of electron       8.0000010 magnetization      -0.0000000
 augmentation part        0.0931415 magnetization       0.0000001

 Broyden mixing:
  rms(total) = 0.89538E-04    rms(broyden)= 0.89530E-04
  rms(prec ) = 0.14603E-03
  weight for this iteration     100.00

 eigenvalues of (default mixing * dielectric matrix)
  average eigenvalue GAMMA=   2.0834
  4.0863  3.0817  2.4605  2.4605  1.0009  0.8465  0.6471

 Free energy of the ion-electron system (eV)
  ---------------------------------------------------
  alpha Z        PSCENC =         0.03937240
  Ewald energy   TEWEN  =        25.82161325
  -Hartree energ DENC   =       -87.30566149
  -exchange      EXHF   =         0.00000000
  -V(xc)+E(xc)   XCENC  =        15.21384408
  PAW double counting   =        18.74141847      -18.79840633
  entropy T*S    EENTRO =        -0.22567583
  eigenvalues    EBANDS =       -61.29714145
  atomic energy  EATOM  =        99.56620307
  Solvation  Ediel_sol  =         0.00000000
  ---------------------------------------------------
  free energy    TOTEN  =        -8.24443383 eV

  energy without entropy =       -8.01875800  energy(sigma->0) =       -8.13159591


--------------------------------------------------------------------------------------------------------




--------------------------------------- Iteration      1(  13)  ---------------------------------------


    POTLOK:  cpu time    1.0205: real time    1.0201
    SETDIJ:  cpu time    0.0124: real time    0.0124
     EDDAV:  cpu time    0.4860: real time    0.4858
       DOS:  cpu time    0.0003: real time    0.0003
    CHARGE:  cpu time    0.2739: real time    0.3097
    MIXING:  cpu time    0.0316: real time    0.0316
    --------------------------------------------
      LOOP:  cpu time    1.8248: real time    1.8600

 eigenvalue-minimisations  :    32
 total energy-change (2. order) :-0.1448725E-04  (-0.4900079E-07)
 number of electron       8.0000010 magnetization      -0.0000000
 augmentation part        0.0931409 magnetization      -0.0000001

 Broyden mixing:
  rms(total) = 0.32478E-04    rms(broyden)= 0.32474E-04
  rms(prec ) = 0.64762E-04
  weight for this iteration     100.00

 eigenvalues of (default mixing * dielectric matrix)
  average eigenvalue GAMMA=   2.1665
  5.2119  3.1252  2.9672  2.5730  0.9990  1.0580  0.7627  0.6350

 Free energy of the ion-electron system (eV)
  ---------------------------------------------------
  alpha Z        PSCENC =         0.03937240
  Ewald energy   TEWEN  =        25.82161325
  -Hartree energ DENC   =       -87.30919849
  -exchange      EXHF   =         0.00000000
  -V(xc)+E(xc)   XCENC  =        15.21375108
  PAW double counting   =        18.74840558      -18.80540842
  entropy T*S    EENTRO =        -0.22567583
  eigenvalues    EBANDS =       -61.29351096
  atomic energy  EATOM  =        99.56620307
  Solvation  Ediel_sol  =         0.00000000
  ---------------------------------------------------
  free energy    TOTEN  =        -8.24444832 eV

  energy without entropy =       -8.01877248  energy(sigma->0) =       -8.13161040


--------------------------------------------------------------------------------------------------------




--------------------------------------- Iteration      1(  14)  ---------------------------------------


    POTLOK:  cpu time    1.0006: real time    1.0003
    SETDIJ:  cpu time    0.0123: real time    0.0123
     EDDAV:  cpu time    0.4898: real time    0.4897
       DOS:  cpu time    0.0003: real time    0.0003
    CHARGE:  cpu time    0.2772: real time    0.2772
    MIXING:  cpu time    0.0312: real time    0.0311
    --------------------------------------------
      LOOP:  cpu time    1.8114: real time    1.8109

 eigenvalue-minimisations  :    32
 total energy-change (2. order) :-0.5338706E-05  (-0.1079850E-07)
 number of electron       8.0000010 magnetization       0.0000000
 augmentation part        0.0931407 magnetization      -0.0000000

 Broyden mixing:
  rms(total) = 0.36037E-04    rms(broyden)= 0.36036E-04
  rms(prec ) = 0.53656E-04
  weight for this iteration     100.00

 eigenvalues of (default mixing * dielectric matrix)
  average eigenvalue GAMMA=   2.1869
  5.8814  3.2770  3.0231  2.5534  1.6814  0.9969  0.9094  0.7281  0.6317

 Free energy of the ion-electron system (eV)
  ---------------------------------------------------
  alpha Z        PSCENC =         0.03937240
  Ewald energy   TEWEN  =        25.82161325
  -Hartree energ DENC   =       -87.31002685
  -exchange      EXHF   =         0.00000000
  -V(xc)+E(xc)   XCENC  =        15.21367935
  PAW double counting   =        18.74887441      -18.80587378
  entropy T*S    EENTRO =        -0.22567583
  eigenvalues    EBANDS =       -61.29261968
  atomic energy  EATOM  =        99.56620307
  Solvation  Ediel_sol  =         0.00000000
  ---------------------------------------------------
  free energy    TOTEN  =        -8.24445365 eV

  energy without entropy =       -8.01877782  energy(sigma->0) =       -8.13161574


--------------------------------------------------------------------------------------------------------




--------------------------------------- Iteration      1(  15)  ---------------------------------------


    POTLOK:  cpu time    0.9982: real time    0.9981
    SETDIJ:  cpu time    0.0122: real time    0.0122
     EDDAV:  cpu time    0.4908: real time    0.4908
       DOS:  cpu time    0.0003: real time    0.0003
    CHARGE:  cpu time    0.2761: real time    0.2760
    MIXING:  cpu time    0.0333: real time    0.0333
    --------------------------------------------
      LOOP:  cpu time    1.8109: real time    1.8106

 eigenvalue-minimisations  :    32
 total energy-change (2. order) :-0.7268203E-05  (-0.1993479E-07)
 number of electron       8.0000010 magnetization       0.0000000
 augmentation part        0.0931404 magnetization       0.0000001

 Broyden mixing:
  rms(total) = 0.11723E-04    rms(broyden)= 0.11720E-04
  rms(prec ) = 0.19956E-04
  weight for this iteration     100.00

 eigenvalues of (default mixing * dielectric matrix)
  average eigenvalue GAMMA=   2.3834
  7.1883  4.0864  3.0410  2.8122  2.5470  1.0264  1.0264  0.7984  0.6290  0.6788

 Free energy of the ion-electron system (eV)
  ---------------------------------------------------
  alpha Z        PSCENC =         0.03937240
  Ewald energy   TEWEN  =        25.82161325
  -Hartree energ DENC   =       -87.31129505
  -exchange      EXHF   =         0.00000000
  -V(xc)+E(xc)   XCENC  =        15.21378627
  PAW double counting   =        18.74521140      -18.80220184
  entropy T*S    EENTRO =        -0.22567583
  eigenvalues    EBANDS =       -61.29147459
  atomic energy  EATOM  =        99.56620307
  Solvation  Ediel_sol  =         0.00000000
  ---------------------------------------------------
  free energy    TOTEN  =        -8.24446092 eV

  energy without entropy =       -8.01878509  energy(sigma->0) =       -8.13162301


--------------------------------------------------------------------------------------------------------




--------------------------------------- Iteration      1(  16)  ---------------------------------------


    POTLOK:  cpu time    1.0082: real time    1.0080
    SETDIJ:  cpu time    0.0122: real time    0.0122
     EDDAV:  cpu time    0.4832: real time    0.4831
       DOS:  cpu time    0.0003: real time    0.0003
    CHARGE:  cpu time    0.2738: real time    0.2738
    MIXING:  cpu time    0.0363: real time    0.0363
    --------------------------------------------
      LOOP:  cpu time    1.8140: real time    1.8137

 eigenvalue-minimisations  :    32
 total energy-change (2. order) :-0.2736512E-05  (-0.5147255E-08)
 number of electron       8.0000010 magnetization      -0.0000000
 augmentation part        0.0931401 magnetization       0.0000000

 Broyden mixing:
  rms(total) = 0.14947E-04    rms(broyden)= 0.14946E-04
  rms(prec ) = 0.18463E-04
  weight for this iteration     100.00

 eigenvalues of (default mixing * dielectric matrix)
  average eigenvalue GAMMA=   2.4148
  7.7949  4.5118  3.0975  2.8094  2.5375  1.7836  1.0106  0.9363  0.7826  0.6705
  0.6282

 Free energy of the ion-electron system (eV)
  ---------------------------------------------------
  alpha Z        PSCENC =         0.03937240
  Ewald energy   TEWEN  =        25.82161325
  -Hartree energ DENC   =       -87.31166814
  -exchange      EXHF   =         0.00000000
  -V(xc)+E(xc)   XCENC  =        15.21382187
  PAW double counting   =        18.74448448      -18.80147398
  entropy T*S    EENTRO =        -0.22567583
  eigenvalues    EBANDS =       -61.29114078
  atomic energy  EATOM  =        99.56620307
  Solvation  Ediel_sol  =         0.00000000
  ---------------------------------------------------
  free energy    TOTEN  =        -8.24446366 eV

  energy without entropy =       -8.01878783  energy(sigma->0) =       -8.13162574


--------------------------------------------------------------------------------------------------------




--------------------------------------- Iteration      1(  17)  ---------------------------------------


    POTLOK:  cpu time    0.9968: real time    0.9967
    SETDIJ:  cpu time    0.0123: real time    0.0123
     EDDAV:  cpu time    0.4881: real time    0.4880
       DOS:  cpu time    0.0003: real time    0.0003
    CHARGE:  cpu time    0.2776: real time    0.2776
    MIXING:  cpu time    0.0377: real time    0.0377
    --------------------------------------------
      LOOP:  cpu time    1.8129: real time    1.8126

 eigenvalue-minimisations  :    32
 total energy-change (2. order) :-0.3096295E-05  (-0.5819739E-08)
 number of electron       8.0000010 magnetization      -0.0000000
 augmentation part        0.0931399 magnetization       0.0000000

 Broyden mixing:
  rms(total) = 0.44470E-05    rms(broyden)= 0.44450E-05
  rms(prec ) = 0.58708E-05
  weight for this iteration     100.00

 eigenvalues of (default mixing * dielectric matrix)
  average eigenvalue GAMMA=   2.5028
  8.6970  5.0676  3.1678  2.8845  2.7822  2.5677  1.0028  0.9711  0.8239  0.7759
  0.6270  0.6658

 Free energy of the ion-electron system (eV)
  ---------------------------------------------------
  alpha Z        PSCENC =         0.03937240
  Ewald energy   TEWEN  =        25.82161325
  -Hartree energ DENC   =       -87.31144864
  -exchange      EXHF   =         0.00000000
  -V(xc)+E(xc)   XCENC  =        15.21376120
  PAW double counting   =        18.74576896      -18.80276166
  entropy T*S    EENTRO =        -0.22567583
  eigenvalues    EBANDS =       -61.29129950
  atomic energy  EATOM  =        99.56620307
  Solvation  Ediel_sol  =         0.00000000
  ---------------------------------------------------
  free energy    TOTEN  =        -8.24446676 eV

  energy without entropy =       -8.01879092  energy(sigma->0) =       -8.13162884


--------------------------------------------------------------------------------------------------------




--------------------------------------- Iteration      1(  18)  ---------------------------------------


    POTLOK:  cpu time    0.9960: real time    0.9959
    SETDIJ:  cpu time    0.0123: real time    0.0123
     EDDAV:  cpu time    0.4906: real time    0.4905
       DOS:  cpu time    0.0003: real time    0.0003
    --------------------------------------------
      LOOP:  cpu time    1.4991: real time    1.4989

 eigenvalue-minimisations  :    32
 total energy-change (2. order) :-0.8499094E-06  (-0.1437364E-08)
 number of electron       8.0000010 magnetization      -0.0000000
 augmentation part        0.0931399 magnetization       0.0000000

 Free energy of the ion-electron system (eV)
  ---------------------------------------------------
  alpha Z        PSCENC =         0.03937240
  Ewald energy   TEWEN  =        25.82161325
  -Hartree energ DENC   =       -87.31142603
  -exchange      EXHF   =         0.00000000
  -V(xc)+E(xc)   XCENC  =        15.21374836
  PAW double counting   =        18.74592686      -18.80291967
  entropy T*S    EENTRO =        -0.22567583
  eigenvalues    EBANDS =       -61.29131001
  atomic energy  EATOM  =        99.56620307
  Solvation  Ediel_sol  =         0.00000000
  ---------------------------------------------------
  free energy    TOTEN  =        -8.24446761 eV

  energy without entropy =       -8.01879177  energy(sigma->0) =       -8.13162969


--------------------------------------------------------------------------------------------------------




 average (electrostatic) potential at core
  the test charge radii are     0.5201
  (the norm of the test charge is              1.0000)
       1 -42.4916       2 -42.4916       3 -42.4916       4 -42.4916       5 -42.4916
       6 -42.4916       7 -42.4916       8 -42.4916
 
 
 
 E-fermi :  -6.6966     XC(G=0):  -0.4775     alpha+bet : -0.0558


 spin component 1

 k-point     1 :       0.0000    0.0000    0.0000
  band No.  band energies     occupation 
      1      -8.2523      1.00000
      2      -7.8484      1.00000
      3      -7.8484      1.00000
      4      -6.6966      0.50000
      5      -6.6966      0.50000
      6      -5.0840      0.00000
      7      -5.0840      0.00000
      8      -4.1077      0.00000
      9      -0.1204      0.00000
     10      -0.1074      0.00000
     11      -0.1074      0.00000
     12       0.3606      0.00000

 spin component 2

 k-point     1 :       0.0000    0.0000    0.0000
  band No.  band energies     occupation 
      1      -8.2523      1.00000
      2      -7.8484      1.00000
      3      -7.8484      1.00000
      4      -6.6966      0.50000
      5      -6.6966      0.50000
      6      -5.0840      0.00000
      7      -5.0840      0.00000
      8      -4.1077      0.00000
      9      -0.1212      0.00000
     10      -0.1075      0.00000
     11      -0.1075      0.00000
     12       0.3598      0.00000


--------------------------------------------------------------------------------------------------------


 soft charge-density along one line, spin component           1
         0         1         2         3         4         5         6         7         8         9
 total charge-density along one line
 
 soft charge-density along one line, spin component           2
         0         1         2         3         4         5         6         7         8         9
 total charge-density along one line
 
 pseudopotential strength for first ion, spin component:           1
 -2.369  -4.084   0.000  -0.000   0.000
 -4.084  -6.957   0.000  -0.000   0.000
  0.000   0.000  -0.347   0.000  -0.000
 -0.000  -0.000   0.000  -0.347  -0.000
  0.000   0.000  -0.000  -0.000  -0.347
 pseudopotential strength for first ion, spin component:           2
 -2.369  -4.084   0.000  -0.000   0.000
 -4.084  -6.957   0.000  -0.000   0.000
  0.000   0.000  -0.347   0.000  -0.000
 -0.000  -0.000   0.000  -0.347  -0.000
  0.000   0.000  -0.000  -0.000  -0.347
 total augmentation occupancy for first ion, spin component:           1
  1.497  -0.192  -0.000   0.000  -0.000
 -0.192   0.025  -0.000   0.000   0.000
  0.000   0.000   0.000  -0.000   0.000
  0.000   0.000  -0.000   0.001  -0.000
  0.000   0.000   0.000  -0.000   0.000
 total augmentation occupancy for first ion, spin component:           2
 -0.000   0.000  -0.000   0.000  -0.000
  0.000  -0.000  -0.000   0.000   0.000
  0.000   0.000   0.000  -0.000   0.000
  0.000   0.000  -0.000  -0.000   0.000
  0.000  -0.000   0.000   0.000   0.000


------------------------ aborting loop because EDIFF is reached ----------------------------------------


    CHARGE:  cpu time    0.2730: real time    0.2730
    FORLOC:  cpu time    0.0386: real time    0.0386
    FORNL :  cpu time    0.0830: real time    0.0830
    STRESS:  cpu time    0.3301: real time    0.3301
    FORHAR:  cpu time    0.0988: real time    0.0987
    MIXING:  cpu time    0.0448: real time    0.0448
    OFIELD:  cpu time    0.0001: real time    0.0001

  FORCE on cell =-STRESS in cart. coord.  units (eV):
  Direction    XX          YY          ZZ          XY          YZ          ZX
  --------------------------------------------------------------------------------------
  Alpha Z     0.03937     0.03937     0.03937
  Ewald     -26.18144   -26.18144    78.18447     0.00000     0.00000     0.00000
  Hartree     1.82079     1.82079    83.66989    -0.00000    -0.00000    -0.00000
  E(xc)     -17.46739   -17.46739   -16.28092     0.00000     0.00000     0.00000
  Local      -4.68055    -4.68055  -192.08446     0.00000    -0.00000    -0.00000
  n-local   -12.64861   -12.64861   -12.85735     0.00000    -0.00000    -0.00000
  augment     0.60845     0.60845     0.60978     0.00000     0.00000     0.00000
  Kinetic    57.66585    57.66585    37.56349     0.00000    -0.00000    -0.00000
  Fock        0.00000     0.00000     0.00000     0.00000     0.00000     0.00000
  -------------------------------------------------------------------------------------
  Total      -0.84352    -0.84352   -21.15573    -0.00000    -0.00000    -0.00000
  in kB      -0.34128    -0.34128    -8.55940    -0.00000    -0.00000    -0.00000
  external pressure =       -3.08 kB  Pullay stress =        0.00 kB


 VOLUME and BASIS-vectors are now :
 -----------------------------------------------------------------------------
  energy-cutoff  :      300.00
  volume of cell :     3960.00
      direct lattice vectors                 reciprocal lattice vectors
    15.000000000  0.000000000  0.000000000     0.066666667 -0.000000000  0.000000000
     0.000000000 15.000000000  0.000000000     0.000000000  0.066666667  0.000000000
     0.000000000  0.000000000 17.600000000    -0.000000000 -0.000000000  0.056818182

  length of vectors
    15.000000000 15.000000000 17.600000000     0.066666667  0.066666667  0.056818182


 FORCES acting on ions
    electron-ion (+dipol)            ewald-force                    non-local-force                 convergence-correction
 -----------------------------------------------------------------------------------------------
   0.112E-16 -.105E-16 0.133E-15   0.182E-17 -.186E-17 0.000E+00   0.964E-26 -.194E-25 -.258E-25   -.159E-15 -.178E-15 0.765E-16
   0.781E-17 -.147E-16 0.225E-14   0.612E-18 -.136E-17 -.111E-15   0.704E-26 0.969E-26 -.258E-25   -.175E-15 -.175E-15 0.624E-15
   0.823E-17 -.214E-16 0.466E-14   0.802E-18 -.128E-17 -.111E-15   -.296E-25 0.808E-27 -.517E-25   -.163E-15 -.169E-15 0.235E-15
   0.152E-16 -.143E-16 0.650E-14   -.147E-18 -.628E-18 -.167E-15   0.209E-25 0.517E-25 0.129E-25   -.163E-15 -.176E-15 -.624E-16
   0.823E-17 -.139E-16 0.881E-14   -.785E-18 0.906E-19 -.167E-15   0.548E-26 0.129E-25 0.000E+00   -.170E-15 -.176E-15 -.443E-15
   0.111E-16 -.221E-16 0.111E-13   -.173E-17 0.741E-18 -.111E-15   0.327E-25 0.711E-25 0.000E+00   -.175E-15 -.178E-15 -.399E-15
   0.126E-16 -.190E-16 0.130E-13   -.154E-17 0.822E-18 0.000E+00   -.497E-27 0.186E-25 -.258E-25   -.160E-15 -.174E-15 -.333E-15
   0.113E-16 -.205E-16 0.149E-13   -.275E-17 0.132E-17 0.742E-19   0.152E-25 -.129E-25 0.000E+00   -.162E-15 -.181E-15 0.141E-15
 -----------------------------------------------------------------------------------------------
   0.857E-16 -.136E-15 0.613E-13   -.373E-17 -.215E-17 -.666E-15   0.609E-25 0.132E-24 -.116E-24   -.133E-14 -.141E-14 -.161E-15
 
 
 POSITION                                       TOTAL-FORCE (eV/Angst)
 -----------------------------------------------------------------------------------
      0.00000      0.00000      0.00000        -0.000000     -0.000000      0.000000
      0.00000      0.00000      2.20000        -0.000000     -0.000000     -0.000000
      0.00000      0.00000      4.40000         0.000000     -0.000000     -0.000000
      0.00000      0.00000      6.60000        -0.000000      0.000000      0.000000
      0.00000      0.00000      8.80000         0.000000     -0.000000      0.000000
      0.00000      0.00000     11.00000         0.000000      0.000000      0.000000
      0.00000      0.00000     13.20000         0.000000     -0.000000      0.000000
      0.00000      0.00000     15.40000         0.000000      0.000000      0.000000
 -----------------------------------------------------------------------------------
    total drift:                               -0.000000     -0.000000      0.000000


--------------------------------------------------------------------------------------------------------



  FREE ENERGIE OF THE ION-ELECTRON SYSTEM (eV)
  ---------------------------------------------------
  free  energy   TOTEN  =        -8.24446761 eV

  energy  without entropy=       -8.01879177  energy(sigma->0) =       -8.13162969
 


--------------------------------------------------------------------------------------------------------


    POTLOK:  cpu time    1.0274: real time    1.0272


--------------------------------------------------------------------------------------------------------


     LOOP+:  cpu time   31.9713: real time   32.0086
    4ORBIT:  cpu time    0.0000: real time    0.0000

 total amount of memory used by VASP MPI-rank0   139930. kBytes
=======================================================================

   base      :      30000. kBytes
   nonl-proj :       7851. kBytes
   fftplans  :      23580. kBytes
   grid      :      73990. kBytes
   one-center:         19. kBytes
   wavefun   :       4490. kBytes
 
  
  
 General timing and accounting informations for this job:
 ========================================================
  
                  Total CPU time used (sec):       33.168
                            User time (sec):       31.790
                          System time (sec):        1.377
                         Elapsed time (sec):       33.592
  
                   Maximum memory used (kb):      333072.
                   Average memory used (kb):           0.
  
                          Minor page faults:       418605
                          Major page faults:            0
                 Voluntary context switches:         1166
