<?xml version="1.0" encoding="ISO-8859-1"?>
<modeling>
 <generator>
  <i name="program" type="string">vasp </i>
  <i name="version" type="string">5.4.4.18Apr17-6-g9f103f2a35  </i>
  <i name="subversion" type="string">(build Aug 24 2024 05:40:03) complex            parallel </i>
  <i name="platform" type="string">IFC22_IMPI </i>
  <i name="date" type="string">2024 11 22 </i>
  <i name="time" type="string">21:44:58 </i>
 </generator>
 <incar>
  <i type="string" name="PREC">normal</i>
  <i type="int" name="ISPIN">     2</i>
  <i type="int" name="ICHARG">     2</i>
  <i type="int" name="NELM">   100</i>
  <i name="EDIFF">      0.00000100</i>
  <i type="int" name="NSW">     0</i>
  <i name="ENCUT">    300.00000000</i>
  <i name="NUPDOWN">      0.00000000</i>
  <i type="int" name="ISMEAR">     0</i>
  <i name="SIGMA">      0.20000000</i>
  <i type="logical" name="LWAVE"> F  </i>
  <i type="logical" name="LCHARG"> F  </i>
  <v type="int" name="KPOINT_BSE">    -1     0     0     0</v>
  <i type="int" name="NELM">   100</i>
 </incar>
 <structure name="primitive_cell" >
  <crystal>
   <varray name="basis" >
    <v>      15.00000000       0.00000000       0.00000000 </v>
    <v>       0.00000000      15.00000000       0.00000000 </v>
    <v>       0.00000000       0.00000000       2.20000000 </v>
   </varray>
   <i name="volume">    495.00000000 </i>
   <varray name="rec_basis" >
    <v>       0.06666667      -0.00000000       0.00000000 </v>
    <v>       0.00000000       0.06666667       0.00000000 </v>
    <v>      -0.00000000      -0.00000000       0.45454545 </v>
   </varray>
  </crystal>
  <varray name="positions" >
   <v>       0.00000000       0.00000000       0.00000000 </v>
  </varray>
 </structure>
 <varray name="primitive_index" >
  <v type="int" >        1 </v>
 </varray>
 <kpoints>
  <generation param="Gamma">
   <v type="int" name="divisions">       1        1        1 </v>
   <v name="usershift">      0.00000000       0.00000000       0.00000000 </v>
   <v name="genvec1">      1.00000000      -0.00000000       0.00000000 </v>
   <v name="genvec2">      0.00000000       1.00000000       0.00000000 </v>
   <v name="genvec3">     -0.00000000      -0.00000000       1.00000000 </v>
   <v name="shift">      0.00000000       0.00000000       0.00000000 </v>
  </generation>
  <varray name="kpointlist" >
   <v>       0.00000000       0.00000000       0.00000000 </v>
  </varray>
  <varray name="weights" >
   <v>       1.00000000 </v>
  </varray>
 </kpoints>
 <parameters>
  <separator name="general" >
   <i type="string" name="SYSTEM">unknown system</i>
   <i type="logical" name="LCOMPAT"> F  </i>
  </separator>
  <separator name="electronic" >
   <i type="string" name="PREC">normal</i>
   <i name="ENMAX">    300.00000000</i>
   <i name="ENAUG">    400.00000000</i>
   <i name="EDIFF">      0.00000100</i>
   <i type="int" name="IALGO">    38</i>
   <i type="int" name="IWAVPR">    10</i>
   <i type="int" name="NBANDS">    12</i>
   <i name="NELECT">      8.00000000</i>
   <i type="int" name="TURBO">     0</i>
   <i type="int" name="IRESTART">     0</i>
   <i type="int" name="NREBOOT">     0</i>
   <i type="int" name="NMIN">     0</i>
   <i name="EREF">      0.00000000</i>
   <separator name="electronic smearing" >
    <i type="int" name="ISMEAR">     0</i>
    <i name="SIGMA">      0.20000000</i>
    <i name="KSPACING">      0.50000000</i>
    <i type="logical" name="KGAMMA"> T  </i>
   </separator>
   <separator name="electronic projectors" >
    <i type="logical" name="LREAL"> F  </i>
    <v name="ROPT">      0.00000000</v>
    <i type="int" name="LMAXPAW">  -100</i>
    <i type="int" name="LMAXMIX">     2</i>
    <i type="logical" name="NLSPLINE"> F  </i>
   </separator>
   <separator name="electronic startup" >
    <i type="int" name="ISTART">     0</i>
    <i type="int" name="ICHARG">     2</i>
    <i type="int" name="INIWAV">     1</i>
   </separator>
   <separator name="electronic spin" >
    <i type="int" name="ISPIN">     2</i>
    <i type="logical" name="LNONCOLLINEAR"> F  </i>
    <v name="MAGMOM">      0.00000000      0.00000000      0.00000000      0.00000000      0.00000000      0.00000000      0.00000000      0.00000000</v>
    <i name="NUPDOWN">      0.00000000</i>
    <i type="logical" name="LSORBIT"> F  </i>
    <v name="SAXIS">      0.00000000      0.00000000      1.00000000</v>
    <i type="logical" name="LSPIRAL"> F  </i>
    <v name="QSPIRAL">      0.00000000      0.00000000      0.00000000</v>
    <i type="logical" name="LZEROZ"> F  </i>
   </separator>
   <separator name="electronic exchange-correlation" >
    <i type="logical" name="LASPH"> F  </i>
    <i type="logical" name="LMETAGGA"> F  </i>
   </separator>
   <separator name="electronic convergence" >
    <i type="int" name="NELM">   100</i>
    <i type="int" name="NELMDL">    -5</i>
    <i type="int" name="NELMIN">     2</i>
    <i name="ENINI">    300.00000000</i>
    <separator name="electronic convergence detail" >
     <i type="logical" name="LDIAG"> T  </i>
     <i type="logical" name="LSUBROT"> F  </i>
     <i name="WEIMIN">      0.00000000</i>
     <i name="EBREAK">      0.00000002</i>
     <i name="DEPER">      0.30000000</i>
     <i type="int" name="NRMM">     4</i>
     <i name="TIME">      0.40000000</i>
    </separator>
   </separator>
   <separator name="electronic mixer" >
    <i name="AMIX">      0.40000000</i>
    <i name="BMIX">      1.00000000</i>
    <i name="AMIN">      0.10000000</i>
    <i name="AMIX_MAG">      1.60000000</i>
    <i name="BMIX_MAG">      1.00000000</i>
    <separator name="electronic mixer details" >
     <i type="int" name="IMIX">     4</i>
     <i type="logical" name="MIXFIRST"> F  </i>
     <i type="int" name="MAXMIX">   -45</i>
     <i name="WC">    100.00000000</i>
     <i type="int" name="INIMIX">     1</i>
     <i type="int" name="MIXPRE">     1</i>
     <i type="int" name="MREMOVE">     5</i>
    </separator>
   </separator>
   <separator name="electronic dipolcorrection" >
    <i type="logical" name="LDIPOL"> F  </i>
    <i type="logical" name="LMONO"> F  </i>
    <i type="int" name="IDIPOL">     0</i>
    <i name="EPSILON">      1.00000000</i>
    <v name="DIPOL">   -100.00000000   -100.00000000   -100.00000000</v>
    <i name="EFIELD">      0.00000000</i>
   </separator>
  </separator>
  <separator name="grids" >
   <i type="int" name="NGX">    64</i>
   <i type="int" name="NGY">    64</i>
   <i type="int" name="NGZ">    80</i>
   <i type="int" name="NGXF">   128</i>
   <i type="int" name="NGYF">   128</i>
   <i type="int" name="NGZF">   160</i>
   <i type="logical" name="ADDGRID"> F  </i>
  </separator>
  <separator name="ionic" >
   <i type="int" name="NSW">     0</i>
   <i type="int" name="IBRION">    -1</i>
   <i type="int" name="MDALGO">     0</i>
   <i type="int" name="ISIF">     2</i>
   <i name="PSTRESS">      0.00000000</i>
   <i name="EDIFFG">      0.00001000</i>
   <i type="int" name="NFREE">     0</i>
   <i name="POTIM">      0.50000000</i>
   <i name="SMASS">     -3.00000000</i>
   <i name="SCALEE">      1.00000000</i>
  </separator>
  <separator name="ionic md" >
   <i name="TEBEG">      0.00010000</i>
   <i name="TEEND">      0.00010000</i>
   <i type="int" name="NBLOCK">     1</i>
   <i type="int" name="KBLOCK">     1</i>
   <i type="int" name="NPACO">   256</i>
   <i name="APACO">     16.00000000</i>
  </separator>
  <separator name="symmetry" >
   <i type="int" name="ISYM">     2</i>
   <i name="SYMPREC">      0.00001000</i>
  </separator>
  <separator name="dos" >
   <i type="int" name="LORBIT">     0</i>
   <v name="RWIGS">     -1.00000000</v>
   <i type="int" name="NEDOS">   301</i>
   <i name="EMIN">     10.00000000</i>
   <i name="EMAX">    -10.00000000</i>
   <i name="EFERMI">      0.00000000</i>
  </separator>
  <separator name="writing" >
   <i type="int" name="NWRITE">     2</i>
   <i type="logical" name="LWAVE"> F  </i>
   <i type="logical" name="LDOWNSAMPLE"> F  </i>
   <i type="logical" name="LCHARG"> F  </i>
   <i type="logical" name="LPARD"> F  </i>
   <i type="logical" name="LVTOT"> F  </i>
   <i type="logical" name="LVHAR"> F  </i>
   <i type="logical" name="LELF"> F  </i>
   <i type="logical" name="LOPTICS"> F  </i>
   <v name="STM">      0.00000000      0.00000000      0.00000000      0.00000000      0.00000000      0.00000000      0.00000000</v>
  </separator>
  <separator name="performance" >
   <i type="int" name="NPAR">     4</i>
   <i type="int" name="NSIM">     4</i>
   <i type="int" name="NBLK">    -1</i>
   <i type="logical" name="LPLANE"> T  </i>
   <i type="logical" name="LSCALAPACK"> T  </i>
   <i type="logical" name="LSCAAWARE"> F  </i>
   <i type="logical" name="LSCALU"> F  </i>
   <i type="logical" name="LASYNC"> F  </i>
   <i type="logical" name="LORBITALREAL"> F  </i>
  </separator>
  <separator name="miscellaneous" >
   <i type="int" name="IDIOT">     3</i>
   <i type="int" name="ISPECIAL">     0</i>
   <i type="logical" name="LMUSIC"> F  </i>
   <v name="POMASS">      1.00000000</v>
   <v name="DARWINR">      0.00000000</v>
   <v name="DARWINV">      1.00000000</v>
   <i type="logical" name="LCORR"> T  </i>
  </separator>
  <i type="logical" name="GGA_COMPAT"> T  </i>
  <i type="logical" name="LBERRY"> F  </i>
  <i type="int" name="ICORELEVEL">     0</i>
  <i type="logical" name="LDAU"> F  </i>
  <i type="int" name="I_CONSTRAINED_M">     0</i>
  <separator name="electronic exchange-correlation" >
   <i type="string" name="GGA">--</i>
   <i type="int" name="VOSKOWN">     0</i>
   <i type="logical" name="LHFCALC"> F  </i>
   <i type="string" name="PRECFOCK"></i>
   <i type="logical" name="LSYMGRAD"> F  </i>
   <i type="logical" name="LHFONE"> F  </i>
   <i type="logical" name="LRHFCALC"> F  </i>
   <i type="logical" name="LTHOMAS"> F  </i>
   <i type="logical" name="LMODELHF"> F  </i>
   <i name="ENCUT4O">     -1.00000000</i>
   <i type="int" name="EXXOEP">     0</i>
   <i type="int" name="FOURORBIT">     0</i>
   <i name="AEXX">      0.00000000</i>
   <i name="HFALPHA">      0.00000000</i>
   <i name="MCALPHA">      0.00000000</i>
   <i name="ALDAX">      1.00000000</i>
   <i name="AGGAX">      1.00000000</i>
   <i name="ALDAC">      1.00000000</i>
   <i name="AGGAC">      1.00000000</i>
   <i type="int" name="NKREDX">     1</i>
   <i type="int" name="NKREDY">     1</i>
   <i type="int" name="NKREDZ">     1</i>
   <i type="logical" name="SHIFTRED"> F  </i>
   <i type="logical" name="ODDONLY"> F  </i>
   <i type="logical" name="EVENONLY"> F  </i>
   <i type="int" name="LMAXFOCK">     0</i>
   <i type="int" name="NMAXFOCKAE">     0</i>
   <i type="logical" name="LFOCKAEDFT"> F  </i>
   <i name="HFSCREEN">      0.00000000</i>
   <i name="HFSCREENC">      0.00000000</i>
   <i type="int" name="NBANDSGWLOW">     0</i>
  </separator>
  <separator name="vdW DFT" >
   <i type="logical" name="LUSE_VDW"> F  </i>
   <i name="Zab_VDW">     -0.84910000</i>
   <i name="PARAM1">      0.12340000</i>
   <i name="PARAM2">      1.00000000</i>
   <i name="PARAM3">      0.00000000</i>
  </separator>
  <separator name="model GW" >
   <i type="int" name="MODEL_GW">     0</i>
   <i name="MODEL_EPS0">    297.00000000</i>
   <i name="MODEL_ALPHA">      1.00000000</i>
  </separator>
  <separator name="linear response parameters" >
   <i type="logical" name="LEPSILON"> F  </i>
   <i type="logical" name="LRPA"> F  </i>
   <i type="logical" name="LNABLA"> F  </i>
   <i type="logical" name="LVEL"> F  </i>
   <i type="int" name="KINTER">     0</i>
   <i name="CSHIFT">      0.10000000</i>
   <i name="OMEGAMAX">     -1.00000000</i>
   <i name="DEG_THRESHOLD">      0.00200000</i>
   <i name="RTIME">     -0.10000000</i>
   <i name="WPLASMAI">      0.00000000</i>
   <v name="DFIELD">      0.00000000      0.00000000      0.00000000</v>
   <v name="WPLASMA">      0.00000000      0.00000000      0.00000000      0.00000000      0.00000000      0.00000000      0.00000000      0.00000000      0.00000000</v>
  </separator>
  <separator name="orbital magnetization" >
   <i type="logical" name="NUCIND"> F  </i>
   <v name="MAGPOS">      0.00000000      0.00000000      0.00000000</v>
   <i type="logical" name="LNICSALL"> T  </i>
   <i type="logical" name="ORBITALMAG"> F  </i>
   <i type="logical" name="LMAGBLOCH"> F  </i>
   <i type="logical" name="LCHIMAG"> F  </i>
   <i type="logical" name="LGAUGE"> T  </i>
   <i type="int" name="MAGATOM">     0</i>
   <v name="MAGDIPOL">      0.00000000      0.00000000      0.00000000</v>
   <v name="AVECCONST">      0.00000000      0.00000000      0.00000000</v>
  </separator>
  <separator name="response functions" >
   <i type="logical" name="LADDER"> F  </i>
   <i type="logical" name="LRPAFORCE"> F  </i>
   <i type="logical" name="LFXC"> F  </i>
   <i type="logical" name="LHARTREE"> T  </i>
   <i type="int" name="IBSE">     0</i>
   <v type="int" name="KPOINT">    -1     0     0     0</v>
   <i type="logical" name="LTCTE"> F  </i>
   <i type="logical" name="LTETE"> F  </i>
   <i type="logical" name="LTRIPLET"> F  </i>
   <i type="logical" name="LFXCEPS"> F  </i>
   <i type="logical" name="LFXHEG"> F  </i>
   <i type="int" name="NATURALO">     2</i>
   <i type="logical" name="L2ORDER"> F  </i>
   <i type="logical" name="LMP2LT"> F  </i>
   <i type="logical" name="LUSEW"> F  </i>
   <i name="ENCUTGW">     -2.00000000</i>
   <i name="ENCUTGWSOFT">     -2.00000000</i>
   <i name="ENCUTLF">     -1.00000000</i>
   <i type="int" name="LMAXMP2">    -1</i>
   <i name="SCISSOR">      0.00000000</i>
   <i type="int" name="NOMEGA">     0</i>
   <i type="int" name="NOMEGAR">     0</i>
   <i type="int" name="NBANDSGW">    -1</i>
   <i type="int" name="NBANDSO">    -1</i>
   <i type="int" name="NBANDSV">    -1</i>
   <i type="int" name="NELM">   100</i>
   <i type="int" name="NELMHF">     1</i>
   <i type="int" name="DIM">     3</i>
   <i type="int" name="ANTIRES">     0</i>
   <i name="OMEGAMAX">    -30.00000000</i>
   <i name="OMEGAMIN">    -30.00000000</i>
   <i name="OMEGATL">   -200.00000000</i>
   <i type="int" name="OMEGAGRID">   140</i>
   <i name="CSHIFT">     -0.10000000</i>
   <i type="logical" name="SELFENERGY"> F  </i>
   <i type="logical" name="LSPECTRAL"> F  </i>
   <i type="logical" name="LSPECTRALGW"> F  </i>
   <i type="logical" name="LSINGLES"> F  </i>
   <i type="logical" name="LFERMIGW"> F  </i>
   <i type="logical" name="ODDONLYGW"> F  </i>
   <i type="logical" name="EVENONLYGW"> F  </i>
   <i type="int" name="NKREDLFX">     1</i>
   <i type="int" name="NKREDLFY">     1</i>
   <i type="int" name="NKREDLFZ">     1</i>
   <i type="int" name="MAXMEM">  2800</i>
   <i type="int" name="TELESCOPE">     0</i>
   <i type="int" name="TAUPAR">     1</i>
   <i type="int" name="OMEGAPAR">    -1</i>
   <i name="LAMBDA">      1.00000000</i>
  </separator>
  <separator name="External order field" >
   <i name="OFIELD_KAPPA">      0.00000000</i>
   <v name="OFIELD_K">      0.00000000      0.00000000      0.00000000</v>
   <i name="OFIELD_Q6_NEAR">      0.00000000</i>
   <i name="OFIELD_Q6_FAR">      0.00000000</i>
   <i name="OFIELD_A">      0.00000000</i>
  </separator>
 </parameters>
 <atominfo>
  <atoms>       8 </atoms>
  <types>       1 </types>
  <array name="atoms" >
   <dimension dim="1">ion</dimension>
   <field type="string">element</field>
   <field type="int">atomtype</field>
   <set>
    <rc><c>H </c><c>   1</c></rc>
    <rc><c>H </c><c>   1</c></rc>
    <rc><c>H </c><c>   1</c></rc>
    <rc><c>H </c><c>   1</c></rc>
    <rc><c>H </c><c>   1</c></rc>
    <rc><c>H </c><c>   1</c></rc>
    <rc><c>H </c><c>   1</c></rc>
    <rc><c>H </c><c>   1</c></rc>
   </set>
  </array>
  <array name="atomtypes" >
   <dimension dim="1">type</dimension>
   <field type="int">atomspertype</field>
   <field type="string">element</field>
   <field>mass</field>
   <field>valence</field>
   <field type="string">pseudopotential</field>
   <set>
    <rc><c>   8</c><c>H </c><c>      1.00000000</c><c>      1.00000000</c><c>  PAW_PBE H 15Jun2001                   </c></rc>
   </set>
  </array>
 </atominfo>
 <structure name="initialpos" >
  <crystal>
   <varray name="basis" >
    <v>      15.00000000       0.00000000       0.00000000 </v>
    <v>       0.00000000      15.00000000       0.00000000 </v>
    <v>       0.00000000       0.00000000      17.60000000 </v>
   </varray>
   <i name="volume">   3960.00000000 </i>
   <varray name="rec_basis" >
    <v>       0.06666667      -0.00000000       0.00000000 </v>
    <v>       0.00000000       0.06666667       0.00000000 </v>
    <v>      -0.00000000      -0.00000000       0.05681818 </v>
   </varray>
  </crystal>
  <varray name="positions" >
   <v>       0.00000000       0.00000000       0.00000000 </v>
   <v>       0.00000000       0.00000000       0.12500000 </v>
   <v>       0.00000000       0.00000000       0.25000000 </v>
   <v>       0.00000000       0.00000000       0.37500000 </v>
   <v>       0.00000000       0.00000000       0.50000000 </v>
   <v>       0.00000000       0.00000000       0.62500000 </v>
   <v>       0.00000000       0.00000000       0.75000000 </v>
   <v>       0.00000000       0.00000000       0.87500000 </v>
  </varray>
 </structure>
 <calculation>
  <scstep>
   <time name="dav">    0.63    0.63</time>
   <time name="total">    1.61    1.61</time>
   <energy>
    <i name="alphaZ">      0.03937240 </i>
    <i name="ewald">     25.82161325 </i>
    <i name="hartreedc">    -88.53555239 </i>
    <i name="XCdc">     15.53923289 </i>
    <i name="pawpsdc">     17.07221949 </i>
    <i name="pawaedc">    -17.14324176 </i>
    <i name="eentropy">     -0.00000000 </i>
    <i name="bandstr">    -37.86673238 </i>
    <i name="atom">     99.56620307 </i>
    <i name="e_fr_energy">     14.49311457 </i>
    <i name="e_wo_entrp">     14.49311457 </i>
    <i name="e_0_energy">     14.49311457 </i>
   </energy>
  </scstep>
  <scstep>
   <time name="dav">    1.10    1.10</time>
   <time name="total">    1.10    1.10</time>
   <energy>
    <i name="e_fr_energy">     -6.57499978 </i>
    <i name="e_wo_entrp">     -6.57055958 </i>
    <i name="e_0_energy">     -6.57277968 </i>
   </energy>
  </scstep>
  <scstep>
   <time name="dav">    0.75    0.75</time>
   <time name="total">    0.75    0.75</time>
   <energy>
    <i name="e_fr_energy">     -8.08705958 </i>
    <i name="e_wo_entrp">     -7.87207441 </i>
    <i name="e_0_energy">     -7.97956700 </i>
   </energy>
  </scstep>
  <scstep>
   <time name="dav">    0.64    0.64</time>
   <time name="total">    0.64    0.64</time>
   <energy>
    <i name="e_fr_energy">     -8.18274601 </i>
    <i name="e_wo_entrp">     -7.95707167 </i>
    <i name="e_0_energy">     -8.06990884 </i>
   </energy>
  </scstep>
  <scstep>
   <time name="dav">    0.92    0.92</time>
   <time name="total">    1.24    1.24</time>
   <energy>
    <i name="e_fr_energy">     -8.18388762 </i>
    <i name="e_wo_entrp">     -7.95821179 </i>
    <i name="e_0_energy">     -8.07104971 </i>
   </energy>
  </scstep>
  <scstep>
   <time name="dav">    0.73    0.73</time>
   <time name="total">    2.06    2.06</time>
   <energy>
    <i name="e_fr_energy">     -8.21073789 </i>
    <i name="e_wo_entrp">     -7.98506206 </i>
    <i name="e_0_energy">     -8.09789997 </i>
   </energy>
  </scstep>
  <scstep>
   <time name="dav">    0.71    0.71</time>
   <time name="total">    2.03    2.03</time>
   <energy>
    <i name="e_fr_energy">     -8.24324579 </i>
    <i name="e_wo_entrp">     -8.01756996 </i>
    <i name="e_0_energy">     -8.13040787 </i>
   </energy>
  </scstep>
  <scstep>
   <time name="dav">    0.79    0.80</time>
   <time name="total">    2.12    2.13</time>
   <energy>
    <i name="e_fr_energy">     -8.24435709 </i>
    <i name="e_wo_entrp">     -8.01868126 </i>
    <i name="e_0_energy">     -8.13151917 </i>
   </energy>
  </scstep>
  <scstep>
   <time name="dav">    0.78    0.78</time>
   <time name="total">    2.13    2.12</time>
   <energy>
    <i name="e_fr_energy">     -8.24439467 </i>
    <i name="e_wo_entrp">     -8.01871884 </i>
    <i name="e_0_energy">     -8.13155676 </i>
   </energy>
  </scstep>
  <scstep>
   <time name="dav">    0.75    0.75</time>
   <time name="total">    2.07    2.07</time>
   <energy>
    <i name="e_fr_energy">     -8.24441181 </i>
    <i name="e_wo_entrp">     -8.01873598 </i>
    <i name="e_0_energy">     -8.13157390 </i>
   </energy>
  </scstep>
  <scstep>
   <time name="dav">    0.60    0.60</time>
   <time name="total">    1.93    1.93</time>
   <energy>
    <i name="e_fr_energy">     -8.24442284 </i>
    <i name="e_wo_entrp">     -8.01874701 </i>
    <i name="e_0_energy">     -8.13158492 </i>
   </energy>
  </scstep>
  <scstep>
   <time name="dav">    0.49    0.49</time>
   <time name="total">    1.82    1.82</time>
   <energy>
    <i name="e_fr_energy">     -8.24443383 </i>
    <i name="e_wo_entrp">     -8.01875800 </i>
    <i name="e_0_energy">     -8.13159591 </i>
   </energy>
  </scstep>
  <scstep>
   <time name="dav">    0.49    0.49</time>
   <time name="total">    1.82    1.86</time>
   <energy>
    <i name="e_fr_energy">     -8.24444832 </i>
    <i name="e_wo_entrp">     -8.01877248 </i>
    <i name="e_0_energy">     -8.13161040 </i>
   </energy>
  </scstep>
  <scstep>
   <time name="dav">    0.49    0.49</time>
   <time name="total">    1.81    1.81</time>
   <energy>
    <i name="e_fr_energy">     -8.24445365 </i>
    <i name="e_wo_entrp">     -8.01877782 </i>
    <i name="e_0_energy">     -8.13161574 </i>
   </energy>
  </scstep>
  <scstep>
   <time name="dav">    0.49    0.49</time>
   <time name="total">    1.81    1.81</time>
   <energy>
    <i name="e_fr_energy">     -8.24446092 </i>
    <i name="e_wo_entrp">     -8.01878509 </i>
    <i name="e_0_energy">     -8.13162301 </i>
   </energy>
  </scstep>
  <scstep>
   <time name="dav">    0.48    0.48</time>
   <time name="total">    1.81    1.81</time>
   <energy>
    <i name="e_fr_energy">     -8.24446366 </i>
    <i name="e_wo_entrp">     -8.01878783 </i>
    <i name="e_0_energy">     -8.13162574 </i>
   </energy>
  </scstep>
  <scstep>
   <time name="dav">    0.49    0.49</time>
   <time name="total">    1.81    1.81</time>
   <energy>
    <i name="e_fr_energy">     -8.24446676 </i>
    <i name="e_wo_entrp">     -8.01879092 </i>
    <i name="e_0_energy">     -8.13162884 </i>
   </energy>
  </scstep>
  <scstep>
   <time name="dav">    0.49    0.49</time>
   <time name="total">    1.50    1.50</time>
   <energy>
    <i name="alphaZ">      0.03937240 </i>
    <i name="ewald">     25.82161325 </i>
    <i name="hartreedc">    -87.31142603 </i>
    <i name="XCdc">     15.21374836 </i>
    <i name="pawpsdc">     18.74592686 </i>
    <i name="pawaedc">    -18.80291967 </i>
    <i name="eentropy">     -0.22567583 </i>
    <i name="bandstr">    -61.29131001 </i>
    <i name="atom">     99.56620307 </i>
    <i name="e_fr_energy">     -8.24446761 </i>
    <i name="e_wo_entrp">     -8.01879177 </i>
    <i name="e_0_energy">     -8.13162969 </i>
   </energy>
  </scstep>
  <structure>
   <crystal>
    <varray name="basis" >
     <v>      15.00000000       0.00000000       0.00000000 </v>
     <v>       0.00000000      15.00000000       0.00000000 </v>
     <v>       0.00000000       0.00000000      17.60000000 </v>
    </varray>
    <i name="volume">   3960.00000000 </i>
    <varray name="rec_basis" >
     <v>       0.06666667      -0.00000000       0.00000000 </v>
     <v>       0.00000000       0.06666667       0.00000000 </v>
     <v>      -0.00000000      -0.00000000       0.05681818 </v>
    </varray>
   </crystal>
   <varray name="positions" >
    <v>       0.00000000       0.00000000       0.00000000 </v>
    <v>       0.00000000       0.00000000       0.12500000 </v>
    <v>       0.00000000       0.00000000       0.25000000 </v>
    <v>       0.00000000       0.00000000       0.37500000 </v>
    <v>       0.00000000       0.00000000       0.50000000 </v>
    <v>       0.00000000       0.00000000       0.62500000 </v>
    <v>       0.00000000       0.00000000       0.75000000 </v>
    <v>       0.00000000       0.00000000       0.87500000 </v>
   </varray>
  </structure>
  <varray name="forces" >
   <v>      -0.00000000      -0.00000000       0.00000000 </v>
   <v>      -0.00000000      -0.00000000      -0.00000000 </v>
   <v>       0.00000000      -0.00000000      -0.00000000 </v>
   <v>      -0.00000000       0.00000000       0.00000000 </v>
   <v>       0.00000000      -0.00000000       0.00000000 </v>
   <v>       0.00000000       0.00000000       0.00000000 </v>
   <v>       0.00000000      -0.00000000       0.00000000 </v>
   <v>       0.00000000       0.00000000       0.00000000 </v>
  </varray>
  <varray name="stress" >
   <v>      -0.34128000      -0.00000000      -0.00000000 </v>
   <v>      -0.00000000      -0.34128000      -0.00000000 </v>
   <v>      -0.00000000      -0.00000000      -8.55940246 </v>
  </varray>
  <energy>
   <i name="e_fr_energy">     -8.24446761 </i>
   <i name="e_wo_entrp">     -8.13162969 </i>
   <i name="e_0_energy">     -0.22567583 </i>
  </energy>
  <time name="totalsc">   31.97   32.01</time>
  <eigenvalues>
   <array>
    <dimension dim="1">band</dimension>
    <dimension dim="2">kpoint</dimension>
    <dimension dim="3">spin</dimension>
    <field>eigene</field>
    <field>occ</field>
    <set>
     <set comment="spin 1">
      <set comment="kpoint 1">
       <r>   -8.2523    1.0000 </r>
       <r>   -7.8484    1.0000 </r>
       <r>   -7.8484    1.0000 </r>
       <r>   -6.6966    0.5000 </r>
       <r>   -6.6966    0.5000 </r>
       <r>   -5.0840    0.0000 </r>
       <r>   -5.0840    0.0000 </r>
       <r>   -4.1077    0.0000 </r>
       <r>   -0.1204    0.0000 </r>
       <r>   -0.1074    0.0000 </r>
       <r>   -0.1074    0.0000 </r>
       <r>    0.3606    0.0000 </r>
      </set>
     </set>
     <set comment="spin 2">
      <set comment="kpoint 1">
       <r>   -8.2523    1.0000 </r>
       <r>   -7.8484    1.0000 </r>
       <r>   -7.8484    1.0000 </r>
       <r>   -6.6966    0.5000 </r>
       <r>   -6.6966    0.5000 </r>
       <r>   -5.0840    0.0000 </r>
       <r>   -5.0840    0.0000 </r>
       <r>   -4.1077    0.0000 </r>
       <r>   -0.1212    0.0000 </r>
       <r>   -0.1075    0.0000 </r>
       <r>   -0.1075    0.0000 </r>
       <r>    0.3598    0.0000 </r>
      </set>
     </set>
    </set>
   </array>
  </eigenvalues>
  <separator name="orbital magnetization" >
   <v name="MAGDIPOLOUT">      0.00000000      0.00000000      0.00000000</v>
  </separator>
  <dos>
   <i name="efermi">     -6.69656739 </i>
   <total>
    <array>
     <dimension dim="1">gridpoints</dimension>
     <dimension dim="2">spin</dimension>
     <field>energy</field>
     <field>total</field>
     <field>integrated</field>
     <set>
      <set comment="spin 1">
       <r>   -10.2523     0.0000     0.0000 </r>
       <r>   -10.2103     0.0000     0.0000 </r>
       <r>   -10.1683     0.0000     0.0000 </r>
       <r>   -10.1262     0.0000     0.0000 </r>
       <r>   -10.0842     0.0000     0.0000 </r>
       <r>   -10.0421     0.0000     0.0000 </r>
       <r>   -10.0001     0.0000     0.0000 </r>
       <r>    -9.9580     0.0000     0.0000 </r>
       <r>    -9.9160     0.0000     0.0000 </r>
       <r>    -9.8740     0.0000     0.0000 </r>
       <r>    -9.8319     0.0000     0.0000 </r>
       <r>    -9.7899     0.0000     0.0000 </r>
       <r>    -9.7478     0.0000     0.0000 </r>
       <r>    -9.7058     0.0000     0.0000 </r>
       <r>    -9.6637     0.0000     0.0000 </r>
       <r>    -9.6217     0.0000     0.0000 </r>
       <r>    -9.5797     0.0000     0.0000 </r>
       <r>    -9.5376     0.0000     0.0000 </r>
       <r>    -9.4956     0.0000     0.0000 </r>
       <r>    -9.4535     0.0000     0.0000 </r>
       <r>    -9.4115     0.0000     0.0000 </r>
       <r>    -9.3694     0.0000     0.0000 </r>
       <r>    -9.3274     0.0000     0.0000 </r>
       <r>    -9.2854     0.0000     0.0000 </r>
       <r>    -9.2433     0.0000     0.0000 </r>
       <r>    -9.2013     0.0000     0.0000 </r>
       <r>    -9.1592     0.0000     0.0000 </r>
       <r>    -9.1172     0.0000     0.0000 </r>
       <r>    -9.0751     0.0000     0.0000 </r>
       <r>    -9.0331     0.0000     0.0000 </r>
       <r>    -8.9910     0.0000     0.0000 </r>
       <r>    -8.9490     0.0000     0.0000 </r>
       <r>    -8.9070     0.0001     0.0000 </r>
       <r>    -8.8649     0.0003     0.0000 </r>
       <r>    -8.8229     0.0010     0.0001 </r>
       <r>    -8.7808     0.0031     0.0002 </r>
       <r>    -8.7388     0.0094     0.0006 </r>
       <r>    -8.6967     0.0260     0.0017 </r>
       <r>    -8.6547     0.0657     0.0044 </r>
       <r>    -8.6127     0.1522     0.0108 </r>
       <r>    -8.5706     0.3229     0.0244 </r>
       <r>    -8.5286     0.6274     0.0508 </r>
       <r>    -8.4865     1.1168     0.0977 </r>
       <r>    -8.4445     1.8210     0.1743 </r>
       <r>    -8.4024     2.7210     0.2887 </r>
       <r>    -8.3604     3.7274     0.4454 </r>
       <r>    -8.3184     4.6862     0.6424 </r>
       <r>    -8.2763     5.4214     0.8704 </r>
       <r>    -8.2343     5.8045     1.1144 </r>
       <r>    -8.1922     5.8249     1.3593 </r>
       <r>    -8.1502     5.6202     1.5956 </r>
       <r>    -8.1081     5.4462     1.8246 </r>
       <r>    -8.0661     5.5872     2.0595 </r>
       <r>    -8.0241     6.2392     2.3218 </r>
       <r>    -7.9820     7.4114     2.6334 </r>
       <r>    -7.9400     8.8904     3.0072 </r>
       <r>    -7.8979    10.2915     3.4399 </r>
       <r>    -7.8559    11.1876     3.9102 </r>
       <r>    -7.8138    11.2659     4.3839 </r>
       <r>    -7.7718    10.4432     4.8230 </r>
       <r>    -7.7298     8.8865     5.1966 </r>
       <r>    -7.6877     6.9331     5.4881 </r>
       <r>    -7.6457     4.9567     5.6965 </r>
       <r>    -7.6036     3.2466     5.8330 </r>
       <r>    -7.5616     1.9480     5.9149 </r>
       <r>    -7.5195     1.0707     5.9599 </r>
       <r>    -7.4775     0.5391     5.9825 </r>
       <r>    -7.4354     0.2486     5.9930 </r>
       <r>    -7.3934     0.1050     5.9974 </r>
       <r>    -7.3514     0.0408     5.9991 </r>
       <r>    -7.3093     0.0149     5.9998 </r>
       <r>    -7.2673     0.0066     6.0000 </r>
       <r>    -7.2252     0.0076     6.0003 </r>
       <r>    -7.1832     0.0191     6.0012 </r>
       <r>    -7.1411     0.0519     6.0033 </r>
       <r>    -7.0991     0.1310     6.0088 </r>
       <r>    -7.0571     0.3034     6.0216 </r>
       <r>    -7.0150     0.6439     6.0487 </r>
       <r>    -6.9730     1.2514     6.1013 </r>
       <r>    -6.9309     2.2280     6.1950 </r>
       <r>    -6.8889     3.6334     6.3477 </r>
       <r>    -6.8468     5.4276     6.5759 </r>
       <r>    -6.8048     7.4267     6.8882 </r>
       <r>    -6.7628     9.3086     7.2795 </r>
       <r>    -6.7207    10.6873     7.7289 </r>
       <r>    -6.6787    11.2397     8.2014 </r>
       <r>    -6.6366    10.8276     8.6566 </r>
       <r>    -6.5946     9.5546     9.0583 </r>
       <r>    -6.5525     7.7231     9.3830 </r>
       <r>    -6.5105     5.7183     9.6235 </r>
       <r>    -6.4685     3.8782     9.7865 </r>
       <r>    -6.4264     2.4094     9.8878 </r>
       <r>    -6.3844     1.3711     9.9455 </r>
       <r>    -6.3423     0.7147     9.9755 </r>
       <r>    -6.3003     0.3412     9.9898 </r>
       <r>    -6.2582     0.1492     9.9961 </r>
       <r>    -6.2162     0.0598     9.9986 </r>
       <r>    -6.1742     0.0219     9.9996 </r>
       <r>    -6.1321     0.0074     9.9999 </r>
       <r>    -6.0901     0.0023    10.0000 </r>
       <r>    -6.0480     0.0006    10.0000 </r>
       <r>    -6.0060     0.0002    10.0000 </r>
       <r>    -5.9639     0.0000    10.0000 </r>
       <r>    -5.9219     0.0000    10.0000 </r>
       <r>    -5.8798     0.0000    10.0000 </r>
       <r>    -5.8378     0.0000    10.0000 </r>
       <r>    -5.7958     0.0000    10.0000 </r>
       <r>    -5.7537     0.0001    10.0000 </r>
       <r>    -5.7117     0.0003    10.0000 </r>
       <r>    -5.6696     0.0012    10.0001 </r>
       <r>    -5.6276     0.0041    10.0002 </r>
       <r>    -5.5855     0.0128    10.0008 </r>
       <r>    -5.5435     0.0365    10.0023 </r>
       <r>    -5.5015     0.0952    10.0063 </r>
       <r>    -5.4594     0.2276    10.0159 </r>
       <r>    -5.4174     0.4982    10.0368 </r>
       <r>    -5.3753     0.9988    10.0788 </r>
       <r>    -5.3333     1.8344    10.1560 </r>
       <r>    -5.2912     3.0861    10.2857 </r>
       <r>    -5.2492     4.7556    10.4856 </r>
       <r>    -5.2072     6.7127    10.7679 </r>
       <r>    -5.1651     8.6793    11.1328 </r>
       <r>    -5.1231    10.2795    11.5650 </r>
       <r>    -5.0810    11.1521    12.0338 </r>
       <r>    -5.0390    11.0826    12.4998 </r>
       <r>    -4.9969    10.0884    12.9239 </r>
       <r>    -4.9549     8.4120    13.2776 </r>
       <r>    -4.9129     6.4251    13.5477 </r>
       <r>    -4.8708     4.4952    13.7367 </r>
       <r>    -4.8288     2.8808    13.8578 </r>
       <r>    -4.7867     1.6912    13.9289 </r>
       <r>    -4.7447     0.9095    13.9672 </r>
       <r>    -4.7026     0.4484    13.9860 </r>
       <r>    -4.6606     0.2037    13.9946 </r>
       <r>    -4.6186     0.0885    13.9983 </r>
       <r>    -4.5765     0.0462    14.0003 </r>
       <r>    -4.5345     0.0497    14.0023 </r>
       <r>    -4.4924     0.0980    14.0065 </r>
       <r>    -4.4504     0.2119    14.0154 </r>
       <r>    -4.4083     0.4314    14.0335 </r>
       <r>    -4.3663     0.8074    14.0675 </r>
       <r>    -4.3242     1.3850    14.1257 </r>
       <r>    -4.2822     2.1762    14.2172 </r>
       <r>    -4.2402     3.1324    14.3489 </r>
       <r>    -4.1981     4.1299    14.5225 </r>
       <r>    -4.1561     4.9876    14.7322 </r>
       <r>    -4.1140     5.5176    14.9642 </r>
       <r>    -4.0720     5.5912    15.1993 </r>
       <r>    -4.0299     5.1899    15.4175 </r>
       <r>    -3.9879     4.4128    15.6030 </r>
       <r>    -3.9459     3.4369    15.7475 </r>
       <r>    -3.9038     2.4519    15.8506 </r>
       <r>    -3.8618     1.6023    15.9179 </r>
       <r>    -3.8197     0.9592    15.9583 </r>
       <r>    -3.7777     0.5259    15.9804 </r>
       <r>    -3.7356     0.2641    15.9915 </r>
       <r>    -3.6936     0.1215    15.9966 </r>
       <r>    -3.6516     0.0512    15.9987 </r>
       <r>    -3.6095     0.0198    15.9996 </r>
       <r>    -3.5675     0.0070    15.9999 </r>
       <r>    -3.5254     0.0023    16.0000 </r>
       <r>    -3.4834     0.0007    16.0000 </r>
       <r>    -3.4413     0.0002    16.0000 </r>
       <r>    -3.3993     0.0000    16.0000 </r>
       <r>    -3.3573     0.0000    16.0000 </r>
       <r>    -3.3152     0.0000    16.0000 </r>
       <r>    -3.2732     0.0000    16.0000 </r>
       <r>    -3.2311     0.0000    16.0000 </r>
       <r>    -3.1891     0.0000    16.0000 </r>
       <r>    -3.1470     0.0000    16.0000 </r>
       <r>    -3.1050     0.0000    16.0000 </r>
       <r>    -3.0630     0.0000    16.0000 </r>
       <r>    -3.0209     0.0000    16.0000 </r>
       <r>    -2.9789     0.0000    16.0000 </r>
       <r>    -2.9368     0.0000    16.0000 </r>
       <r>    -2.8948     0.0000    16.0000 </r>
       <r>    -2.8527     0.0000    16.0000 </r>
       <r>    -2.8107     0.0000    16.0000 </r>
       <r>    -2.7686     0.0000    16.0000 </r>
       <r>    -2.7266     0.0000    16.0000 </r>
       <r>    -2.6846     0.0000    16.0000 </r>
       <r>    -2.6425     0.0000    16.0000 </r>
       <r>    -2.6005     0.0000    16.0000 </r>
       <r>    -2.5584     0.0000    16.0000 </r>
       <r>    -2.5164     0.0000    16.0000 </r>
       <r>    -2.4743     0.0000    16.0000 </r>
       <r>    -2.4323     0.0000    16.0000 </r>
       <r>    -2.3903     0.0000    16.0000 </r>
       <r>    -2.3482     0.0000    16.0000 </r>
       <r>    -2.3062     0.0000    16.0000 </r>
       <r>    -2.2641     0.0000    16.0000 </r>
       <r>    -2.2221     0.0000    16.0000 </r>
       <r>    -2.1800     0.0000    16.0000 </r>
       <r>    -2.1380     0.0000    16.0000 </r>
       <r>    -2.0960     0.0000    16.0000 </r>
       <r>    -2.0539     0.0000    16.0000 </r>
       <r>    -2.0119     0.0000    16.0000 </r>
       <r>    -1.9698     0.0000    16.0000 </r>
       <r>    -1.9278     0.0000    16.0000 </r>
       <r>    -1.8857     0.0000    16.0000 </r>
       <r>    -1.8437     0.0000    16.0000 </r>
       <r>    -1.8017     0.0000    16.0000 </r>
       <r>    -1.7596     0.0000    16.0000 </r>
       <r>    -1.7176     0.0000    16.0000 </r>
       <r>    -1.6755     0.0000    16.0000 </r>
       <r>    -1.6335     0.0000    16.0000 </r>
       <r>    -1.5914     0.0000    16.0000 </r>
       <r>    -1.5494     0.0000    16.0000 </r>
       <r>    -1.5074     0.0000    16.0000 </r>
       <r>    -1.4653     0.0000    16.0000 </r>
       <r>    -1.4233     0.0000    16.0000 </r>
       <r>    -1.3812     0.0000    16.0000 </r>
       <r>    -1.3392     0.0000    16.0000 </r>
       <r>    -1.2971     0.0000    16.0000 </r>
       <r>    -1.2551     0.0000    16.0000 </r>
       <r>    -1.2130     0.0000    16.0000 </r>
       <r>    -1.1710     0.0000    16.0000 </r>
       <r>    -1.1290     0.0000    16.0000 </r>
       <r>    -1.0869     0.0000    16.0000 </r>
       <r>    -1.0449     0.0000    16.0000 </r>
       <r>    -1.0028     0.0000    16.0000 </r>
       <r>    -0.9608     0.0000    16.0000 </r>
       <r>    -0.9187     0.0000    16.0000 </r>
       <r>    -0.8767     0.0000    16.0000 </r>
       <r>    -0.8347     0.0000    16.0000 </r>
       <r>    -0.7926     0.0001    16.0000 </r>
       <r>    -0.7506     0.0003    16.0000 </r>
       <r>    -0.7085     0.0013    16.0001 </r>
       <r>    -0.6665     0.0046    16.0003 </r>
       <r>    -0.6244     0.0145    16.0009 </r>
       <r>    -0.5824     0.0422    16.0027 </r>
       <r>    -0.5404     0.1125    16.0074 </r>
       <r>    -0.4983     0.2748    16.0189 </r>
       <r>    -0.4563     0.6147    16.0448 </r>
       <r>    -0.4142     1.2600    16.0978 </r>
       <r>    -0.3722     2.3662    16.1972 </r>
       <r>    -0.3301     4.0707    16.3684 </r>
       <r>    -0.2881     6.4161    16.6381 </r>
       <r>    -0.2461     9.2649    17.0277 </r>
       <r>    -0.2040    12.2575    17.5430 </r>
       <r>    -0.1620    14.8585    18.1677 </r>
       <r>    -0.1199    16.5055    18.8617 </r>
       <r>    -0.0779    16.8095    19.5684 </r>
       <r>    -0.0358    15.7129    20.2290 </r>
       <r>     0.0062    13.5230    20.7976 </r>
       <r>     0.0482    10.8017    21.2517 </r>
       <r>     0.0903     8.1696    21.5952 </r>
       <r>     0.1323     6.1169    21.8523 </r>
       <r>     0.1744     4.8919    22.0580 </r>
       <r>     0.2164     4.4841    22.2465 </r>
       <r>     0.2585     4.6798    22.4433 </r>
       <r>     0.3005     5.1543    22.6600 </r>
       <r>     0.3426     5.5731    22.8943 </r>
       <r>     0.3846     5.6825    23.1332 </r>
       <r>     0.4266     5.3681    23.3589 </r>
       <r>     0.4687     4.6652    23.5550 </r>
       <r>     0.5107     3.7198    23.7114 </r>
       <r>     0.5528     2.7185    23.8257 </r>
       <r>     0.5948     1.8203    23.9023 </r>
       <r>     0.6369     1.1166    23.9492 </r>
       <r>     0.6789     0.6274    23.9756 </r>
       <r>     0.7209     0.3229    23.9892 </r>
       <r>     0.7630     0.1522    23.9956 </r>
       <r>     0.8050     0.0657    23.9983 </r>
       <r>     0.8471     0.0260    23.9994 </r>
       <r>     0.8891     0.0094    23.9998 </r>
       <r>     0.9312     0.0031    23.9999 </r>
       <r>     0.9732     0.0010    24.0000 </r>
       <r>     1.0152     0.0003    24.0000 </r>
       <r>     1.0573     0.0001    24.0000 </r>
       <r>     1.0993     0.0000    24.0000 </r>
       <r>     1.1414     0.0000    24.0000 </r>
       <r>     1.1834     0.0000    24.0000 </r>
       <r>     1.2255     0.0000    24.0000 </r>
       <r>     1.2675     0.0000    24.0000 </r>
       <r>     1.3095     0.0000    24.0000 </r>
       <r>     1.3516     0.0000    24.0000 </r>
       <r>     1.3936     0.0000    24.0000 </r>
       <r>     1.4357     0.0000    24.0000 </r>
       <r>     1.4777     0.0000    24.0000 </r>
       <r>     1.5198     0.0000    24.0000 </r>
       <r>     1.5618     0.0000    24.0000 </r>
       <r>     1.6038     0.0000    24.0000 </r>
       <r>     1.6459     0.0000    24.0000 </r>
       <r>     1.6879     0.0000    24.0000 </r>
       <r>     1.7300     0.0000    24.0000 </r>
       <r>     1.7720     0.0000    24.0000 </r>
       <r>     1.8141     0.0000    24.0000 </r>
       <r>     1.8561     0.0000    24.0000 </r>
       <r>     1.8982     0.0000    24.0000 </r>
       <r>     1.9402     0.0000    24.0000 </r>
       <r>     1.9822     0.0000    24.0000 </r>
       <r>     2.0243     0.0000    24.0000 </r>
       <r>     2.0663     0.0000    24.0000 </r>
       <r>     2.1084     0.0000    24.0000 </r>
       <r>     2.1504     0.0000    24.0000 </r>
       <r>     2.1925     0.0000    24.0000 </r>
       <r>     2.2345     0.0000    24.0000 </r>
       <r>     2.2765     0.0000    24.0000 </r>
       <r>     2.3186     0.0000    24.0000 </r>
       <r>     2.3606     0.0000    24.0000 </r>
      </set>
      <set comment="spin 2">
       <r>   -10.2523     0.0000     0.0000 </r>
       <r>   -10.2103     0.0000     0.0000 </r>
       <r>   -10.1683     0.0000     0.0000 </r>
       <r>   -10.1262     0.0000     0.0000 </r>
       <r>   -10.0842     0.0000     0.0000 </r>
       <r>   -10.0421     0.0000     0.0000 </r>
       <r>   -10.0001     0.0000     0.0000 </r>
       <r>    -9.9580     0.0000     0.0000 </r>
       <r>    -9.9160     0.0000     0.0000 </r>
       <r>    -9.8740     0.0000     0.0000 </r>
       <r>    -9.8319     0.0000     0.0000 </r>
       <r>    -9.7899     0.0000     0.0000 </r>
       <r>    -9.7478     0.0000     0.0000 </r>
       <r>    -9.7058     0.0000     0.0000 </r>
       <r>    -9.6637     0.0000     0.0000 </r>
       <r>    -9.6217     0.0000     0.0000 </r>
       <r>    -9.5797     0.0000     0.0000 </r>
       <r>    -9.5376     0.0000     0.0000 </r>
       <r>    -9.4956     0.0000     0.0000 </r>
       <r>    -9.4535     0.0000     0.0000 </r>
       <r>    -9.4115     0.0000     0.0000 </r>
       <r>    -9.3694     0.0000     0.0000 </r>
       <r>    -9.3274     0.0000     0.0000 </r>
       <r>    -9.2854     0.0000     0.0000 </r>
       <r>    -9.2433     0.0000     0.0000 </r>
       <r>    -9.2013     0.0000     0.0000 </r>
       <r>    -9.1592     0.0000     0.0000 </r>
       <r>    -9.1172     0.0000     0.0000 </r>
       <r>    -9.0751     0.0000     0.0000 </r>
       <r>    -9.0331     0.0000     0.0000 </r>
       <r>    -8.9910     0.0000     0.0000 </r>
       <r>    -8.9490     0.0000     0.0000 </r>
       <r>    -8.9070     0.0001     0.0000 </r>
       <r>    -8.8649     0.0003     0.0000 </r>
       <r>    -8.8229     0.0010     0.0001 </r>
       <r>    -8.7808     0.0031     0.0002 </r>
       <r>    -8.7388     0.0094     0.0006 </r>
       <r>    -8.6967     0.0260     0.0017 </r>
       <r>    -8.6547     0.0657     0.0044 </r>
       <r>    -8.6127     0.1522     0.0108 </r>
       <r>    -8.5706     0.3229     0.0244 </r>
       <r>    -8.5286     0.6274     0.0508 </r>
       <r>    -8.4865     1.1168     0.0977 </r>
       <r>    -8.4445     1.8210     0.1743 </r>
       <r>    -8.4024     2.7210     0.2887 </r>
       <r>    -8.3604     3.7274     0.4454 </r>
       <r>    -8.3184     4.6862     0.6424 </r>
       <r>    -8.2763     5.4214     0.8704 </r>
       <r>    -8.2343     5.8045     1.1144 </r>
       <r>    -8.1922     5.8249     1.3593 </r>
       <r>    -8.1502     5.6202     1.5956 </r>
       <r>    -8.1081     5.4462     1.8246 </r>
       <r>    -8.0661     5.5872     2.0595 </r>
       <r>    -8.0241     6.2392     2.3218 </r>
       <r>    -7.9820     7.4114     2.6334 </r>
       <r>    -7.9400     8.8904     3.0072 </r>
       <r>    -7.8979    10.2915     3.4399 </r>
       <r>    -7.8559    11.1876     3.9102 </r>
       <r>    -7.8138    11.2659     4.3839 </r>
       <r>    -7.7718    10.4432     4.8230 </r>
       <r>    -7.7298     8.8865     5.1966 </r>
       <r>    -7.6877     6.9331     5.4881 </r>
       <r>    -7.6457     4.9567     5.6965 </r>
       <r>    -7.6036     3.2466     5.8330 </r>
       <r>    -7.5616     1.9480     5.9149 </r>
       <r>    -7.5195     1.0707     5.9599 </r>
       <r>    -7.4775     0.5391     5.9825 </r>
       <r>    -7.4354     0.2486     5.9930 </r>
       <r>    -7.3934     0.1050     5.9974 </r>
       <r>    -7.3514     0.0408     5.9991 </r>
       <r>    -7.3093     0.0149     5.9998 </r>
       <r>    -7.2673     0.0066     6.0000 </r>
       <r>    -7.2252     0.0076     6.0003 </r>
       <r>    -7.1832     0.0191     6.0012 </r>
       <r>    -7.1411     0.0519     6.0033 </r>
       <r>    -7.0991     0.1310     6.0088 </r>
       <r>    -7.0571     0.3034     6.0216 </r>
       <r>    -7.0150     0.6439     6.0487 </r>
       <r>    -6.9730     1.2514     6.1013 </r>
       <r>    -6.9309     2.2280     6.1950 </r>
       <r>    -6.8889     3.6334     6.3477 </r>
       <r>    -6.8468     5.4276     6.5759 </r>
       <r>    -6.8048     7.4267     6.8882 </r>
       <r>    -6.7628     9.3086     7.2795 </r>
       <r>    -6.7207    10.6873     7.7289 </r>
       <r>    -6.6787    11.2397     8.2014 </r>
       <r>    -6.6366    10.8276     8.6566 </r>
       <r>    -6.5946     9.5546     9.0583 </r>
       <r>    -6.5525     7.7231     9.3830 </r>
       <r>    -6.5105     5.7183     9.6235 </r>
       <r>    -6.4685     3.8782     9.7865 </r>
       <r>    -6.4264     2.4094     9.8878 </r>
       <r>    -6.3844     1.3711     9.9455 </r>
       <r>    -6.3423     0.7147     9.9755 </r>
       <r>    -6.3003     0.3412     9.9898 </r>
       <r>    -6.2582     0.1492     9.9961 </r>
       <r>    -6.2162     0.0598     9.9986 </r>
       <r>    -6.1742     0.0219     9.9996 </r>
       <r>    -6.1321     0.0074     9.9999 </r>
       <r>    -6.0901     0.0023    10.0000 </r>
       <r>    -6.0480     0.0006    10.0000 </r>
       <r>    -6.0060     0.0002    10.0000 </r>
       <r>    -5.9639     0.0000    10.0000 </r>
       <r>    -5.9219     0.0000    10.0000 </r>
       <r>    -5.8798     0.0000    10.0000 </r>
       <r>    -5.8378     0.0000    10.0000 </r>
       <r>    -5.7958     0.0000    10.0000 </r>
       <r>    -5.7537     0.0001    10.0000 </r>
       <r>    -5.7117     0.0003    10.0000 </r>
       <r>    -5.6696     0.0012    10.0001 </r>
       <r>    -5.6276     0.0041    10.0002 </r>
       <r>    -5.5855     0.0128    10.0008 </r>
       <r>    -5.5435     0.0365    10.0023 </r>
       <r>    -5.5015     0.0952    10.0063 </r>
       <r>    -5.4594     0.2276    10.0159 </r>
       <r>    -5.4174     0.4982    10.0368 </r>
       <r>    -5.3753     0.9988    10.0788 </r>
       <r>    -5.3333     1.8345    10.1560 </r>
       <r>    -5.2912     3.0861    10.2857 </r>
       <r>    -5.2492     4.7556    10.4856 </r>
       <r>    -5.2072     6.7127    10.7679 </r>
       <r>    -5.1651     8.6793    11.1328 </r>
       <r>    -5.1231    10.2795    11.5650 </r>
       <r>    -5.0810    11.1521    12.0338 </r>
       <r>    -5.0390    11.0826    12.4998 </r>
       <r>    -4.9969    10.0884    12.9239 </r>
       <r>    -4.9549     8.4120    13.2776 </r>
       <r>    -4.9129     6.4250    13.5477 </r>
       <r>    -4.8708     4.4952    13.7367 </r>
       <r>    -4.8288     2.8808    13.8578 </r>
       <r>    -4.7867     1.6912    13.9289 </r>
       <r>    -4.7447     0.9095    13.9672 </r>
       <r>    -4.7026     0.4484    13.9860 </r>
       <r>    -4.6606     0.2037    13.9946 </r>
       <r>    -4.6186     0.0885    13.9983 </r>
       <r>    -4.5765     0.0462    14.0003 </r>
       <r>    -4.5345     0.0497    14.0023 </r>
       <r>    -4.4924     0.0980    14.0065 </r>
       <r>    -4.4504     0.2119    14.0154 </r>
       <r>    -4.4083     0.4314    14.0335 </r>
       <r>    -4.3663     0.8074    14.0675 </r>
       <r>    -4.3242     1.3850    14.1257 </r>
       <r>    -4.2822     2.1762    14.2172 </r>
       <r>    -4.2402     3.1324    14.3489 </r>
       <r>    -4.1981     4.1299    14.5225 </r>
       <r>    -4.1561     4.9876    14.7322 </r>
       <r>    -4.1140     5.5176    14.9642 </r>
       <r>    -4.0720     5.5912    15.1993 </r>
       <r>    -4.0299     5.1899    15.4175 </r>
       <r>    -3.9879     4.4128    15.6030 </r>
       <r>    -3.9459     3.4369    15.7475 </r>
       <r>    -3.9038     2.4519    15.8506 </r>
       <r>    -3.8618     1.6023    15.9179 </r>
       <r>    -3.8197     0.9592    15.9583 </r>
       <r>    -3.7777     0.5259    15.9804 </r>
       <r>    -3.7356     0.2641    15.9915 </r>
       <r>    -3.6936     0.1215    15.9966 </r>
       <r>    -3.6516     0.0512    15.9987 </r>
       <r>    -3.6095     0.0198    15.9996 </r>
       <r>    -3.5675     0.0070    15.9999 </r>
       <r>    -3.5254     0.0023    16.0000 </r>
       <r>    -3.4834     0.0007    16.0000 </r>
       <r>    -3.4413     0.0002    16.0000 </r>
       <r>    -3.3993     0.0000    16.0000 </r>
       <r>    -3.3573     0.0000    16.0000 </r>
       <r>    -3.3152     0.0000    16.0000 </r>
       <r>    -3.2732     0.0000    16.0000 </r>
       <r>    -3.2311     0.0000    16.0000 </r>
       <r>    -3.1891     0.0000    16.0000 </r>
       <r>    -3.1470     0.0000    16.0000 </r>
       <r>    -3.1050     0.0000    16.0000 </r>
       <r>    -3.0630     0.0000    16.0000 </r>
       <r>    -3.0209     0.0000    16.0000 </r>
       <r>    -2.9789     0.0000    16.0000 </r>
       <r>    -2.9368     0.0000    16.0000 </r>
       <r>    -2.8948     0.0000    16.0000 </r>
       <r>    -2.8527     0.0000    16.0000 </r>
       <r>    -2.8107     0.0000    16.0000 </r>
       <r>    -2.7686     0.0000    16.0000 </r>
       <r>    -2.7266     0.0000    16.0000 </r>
       <r>    -2.6846     0.0000    16.0000 </r>
       <r>    -2.6425     0.0000    16.0000 </r>
       <r>    -2.6005     0.0000    16.0000 </r>
       <r>    -2.5584     0.0000    16.0000 </r>
       <r>    -2.5164     0.0000    16.0000 </r>
       <r>    -2.4743     0.0000    16.0000 </r>
       <r>    -2.4323     0.0000    16.0000 </r>
       <r>    -2.3903     0.0000    16.0000 </r>
       <r>    -2.3482     0.0000    16.0000 </r>
       <r>    -2.3062     0.0000    16.0000 </r>
       <r>    -2.2641     0.0000    16.0000 </r>
       <r>    -2.2221     0.0000    16.0000 </r>
       <r>    -2.1800     0.0000    16.0000 </r>
       <r>    -2.1380     0.0000    16.0000 </r>
       <r>    -2.0960     0.0000    16.0000 </r>
       <r>    -2.0539     0.0000    16.0000 </r>
       <r>    -2.0119     0.0000    16.0000 </r>
       <r>    -1.9698     0.0000    16.0000 </r>
       <r>    -1.9278     0.0000    16.0000 </r>
       <r>    -1.8857     0.0000    16.0000 </r>
       <r>    -1.8437     0.0000    16.0000 </r>
       <r>    -1.8017     0.0000    16.0000 </r>
       <r>    -1.7596     0.0000    16.0000 </r>
       <r>    -1.7176     0.0000    16.0000 </r>
       <r>    -1.6755     0.0000    16.0000 </r>
       <r>    -1.6335     0.0000    16.0000 </r>
       <r>    -1.5914     0.0000    16.0000 </r>
       <r>    -1.5494     0.0000    16.0000 </r>
       <r>    -1.5074     0.0000    16.0000 </r>
       <r>    -1.4653     0.0000    16.0000 </r>
       <r>    -1.4233     0.0000    16.0000 </r>
       <r>    -1.3812     0.0000    16.0000 </r>
       <r>    -1.3392     0.0000    16.0000 </r>
       <r>    -1.2971     0.0000    16.0000 </r>
       <r>    -1.2551     0.0000    16.0000 </r>
       <r>    -1.2130     0.0000    16.0000 </r>
       <r>    -1.1710     0.0000    16.0000 </r>
       <r>    -1.1290     0.0000    16.0000 </r>
       <r>    -1.0869     0.0000    16.0000 </r>
       <r>    -1.0449     0.0000    16.0000 </r>
       <r>    -1.0028     0.0000    16.0000 </r>
       <r>    -0.9608     0.0000    16.0000 </r>
       <r>    -0.9187     0.0000    16.0000 </r>
       <r>    -0.8767     0.0000    16.0000 </r>
       <r>    -0.8347     0.0000    16.0000 </r>
       <r>    -0.7926     0.0001    16.0000 </r>
       <r>    -0.7506     0.0004    16.0000 </r>
       <r>    -0.7085     0.0013    16.0001 </r>
       <r>    -0.6665     0.0046    16.0003 </r>
       <r>    -0.6244     0.0147    16.0009 </r>
       <r>    -0.5824     0.0426    16.0027 </r>
       <r>    -0.5404     0.1135    16.0074 </r>
       <r>    -0.4983     0.2769    16.0191 </r>
       <r>    -0.4563     0.6189    16.0451 </r>
       <r>    -0.4142     1.2675    16.0984 </r>
       <r>    -0.3722     2.3782    16.1984 </r>
       <r>    -0.3301     4.0880    16.3703 </r>
       <r>    -0.2881     6.4381    16.6409 </r>
       <r>    -0.2461     9.2895    17.0315 </r>
       <r>    -0.2040    12.2805    17.5478 </r>
       <r>    -0.1620    14.8752    18.1732 </r>
       <r>    -0.1199    16.5121    18.8674 </r>
       <r>    -0.0779    16.8046    19.5740 </r>
       <r>    -0.0358    15.6982    20.2340 </r>
       <r>     0.0062    13.5030    20.8017 </r>
       <r>     0.0482    10.7819    21.2550 </r>
       <r>     0.0903     8.1552    21.5979 </r>
       <r>     0.1323     6.1113    21.8548 </r>
       <r>     0.1744     4.8956    22.0606 </r>
       <r>     0.2164     4.4952    22.2496 </r>
       <r>     0.2585     4.6945    22.4470 </r>
       <r>     0.3005     5.1675    22.6642 </r>
       <r>     0.3426     5.5805    22.8989 </r>
       <r>     0.3846     5.6813    23.1377 </r>
       <r>     0.4266     5.3581    23.3630 </r>
       <r>     0.4687     4.6487    23.5585 </r>
       <r>     0.5107     3.7004    23.7140 </r>
       <r>     0.5528     2.6998    23.8275 </r>
       <r>     0.5948     1.8047    23.9034 </r>
       <r>     0.6369     1.1051    23.9499 </r>
       <r>     0.6789     0.6199    23.9759 </r>
       <r>     0.7209     0.3185    23.9893 </r>
       <r>     0.7630     0.1499    23.9956 </r>
       <r>     0.8050     0.0646    23.9984 </r>
       <r>     0.8471     0.0255    23.9994 </r>
       <r>     0.8891     0.0092    23.9998 </r>
       <r>     0.9312     0.0031    23.9999 </r>
       <r>     0.9732     0.0009    24.0000 </r>
       <r>     1.0152     0.0003    24.0000 </r>
       <r>     1.0573     0.0001    24.0000 </r>
       <r>     1.0993     0.0000    24.0000 </r>
       <r>     1.1414     0.0000    24.0000 </r>
       <r>     1.1834     0.0000    24.0000 </r>
       <r>     1.2255     0.0000    24.0000 </r>
       <r>     1.2675     0.0000    24.0000 </r>
       <r>     1.3095     0.0000    24.0000 </r>
       <r>     1.3516     0.0000    24.0000 </r>
       <r>     1.3936     0.0000    24.0000 </r>
       <r>     1.4357     0.0000    24.0000 </r>
       <r>     1.4777     0.0000    24.0000 </r>
       <r>     1.5198     0.0000    24.0000 </r>
       <r>     1.5618     0.0000    24.0000 </r>
       <r>     1.6038     0.0000    24.0000 </r>
       <r>     1.6459     0.0000    24.0000 </r>
       <r>     1.6879     0.0000    24.0000 </r>
       <r>     1.7300     0.0000    24.0000 </r>
       <r>     1.7720     0.0000    24.0000 </r>
       <r>     1.8141     0.0000    24.0000 </r>
       <r>     1.8561     0.0000    24.0000 </r>
       <r>     1.8982     0.0000    24.0000 </r>
       <r>     1.9402     0.0000    24.0000 </r>
       <r>     1.9822     0.0000    24.0000 </r>
       <r>     2.0243     0.0000    24.0000 </r>
       <r>     2.0663     0.0000    24.0000 </r>
       <r>     2.1084     0.0000    24.0000 </r>
       <r>     2.1504     0.0000    24.0000 </r>
       <r>     2.1925     0.0000    24.0000 </r>
       <r>     2.2345     0.0000    24.0000 </r>
       <r>     2.2765     0.0000    24.0000 </r>
       <r>     2.3186     0.0000    24.0000 </r>
       <r>     2.3606     0.0000    24.0000 </r>
      </set>
     </set>
    </array>
   </total>
  </dos>
 </calculation>
 <structure name="finalpos" >
  <crystal>
   <varray name="basis" >
    <v>      15.00000000       0.00000000       0.00000000 </v>
    <v>       0.00000000      15.00000000       0.00000000 </v>
    <v>       0.00000000       0.00000000      17.60000000 </v>
   </varray>
   <i name="volume">   3960.00000000 </i>
   <varray name="rec_basis" >
    <v>       0.06666667      -0.00000000       0.00000000 </v>
    <v>       0.00000000       0.06666667       0.00000000 </v>
    <v>      -0.00000000      -0.00000000       0.05681818 </v>
   </varray>
  </crystal>
  <varray name="positions" >
   <v>       0.00000000       0.00000000       0.00000000 </v>
   <v>       0.00000000       0.00000000       0.12500000 </v>
   <v>       0.00000000       0.00000000       0.25000000 </v>
   <v>       0.00000000       0.00000000       0.37500000 </v>
   <v>       0.00000000       0.00000000       0.50000000 </v>
   <v>       0.00000000       0.00000000       0.62500000 </v>
   <v>       0.00000000       0.00000000       0.75000000 </v>
   <v>       0.00000000       0.00000000       0.87500000 </v>
  </varray>
 </structure>
</modeling>
