   8   8   0   0
  0.4500000E+03  0.1500000E-08  0.1500000E-08  0.1600000E-08  0.5000000E-15
  1.000000000000000E-004
  CAR 
 unknown system                          
      2.46901575    -10.66610911  301     -6.66136283      1.00000000
    -10.666  0.0000E+00  0.0000E+00  0.0000E+00  0.0000E+00
    -10.622  0.0000E+00  0.0000E+00  0.0000E+00  0.0000E+00
    -10.579  0.0000E+00  0.0000E+00  0.0000E+00  0.0000E+00
    -10.535  0.0000E+00  0.0000E+00  0.0000E+00  0.0000E+00
    -10.491  0.0000E+00  0.0000E+00  0.0000E+00  0.0000E+00
    -10.447  0.0000E+00  0.0000E+00  0.0000E+00  0.0000E+00
    -10.403  0.0000E+00  0.0000E+00  0.0000E+00  0.0000E+00
    -10.360  0.0000E+00  0.0000E+00  0.0000E+00  0.0000E+00
    -10.316  0.0000E+00  0.0000E+00  0.0000E+00  0.0000E+00
    -10.272  0.0000E+00  0.0000E+00  0.0000E+00  0.0000E+00
    -10.228  0.0000E+00  0.0000E+00  0.0000E+00  0.0000E+00
    -10.184  0.0000E+00  0.0000E+00  0.0000E+00  0.0000E+00
    -10.141  0.0000E+00  0.0000E+00  0.0000E+00  0.0000E+00
    -10.097  0.0000E+00  0.0000E+00  0.0000E+00  0.0000E+00
    -10.053  0.0000E+00  0.0000E+00  0.0000E+00  0.0000E+00
    -10.009  0.0000E+00  0.0000E+00  0.0000E+00  0.0000E+00
     -9.966  0.0000E+00  0.0000E+00  0.0000E+00  0.0000E+00
     -9.922  0.0000E+00  0.0000E+00  0.0000E+00  0.0000E+00
     -9.878  0.0000E+00  0.0000E+00  0.0000E+00  0.0000E+00
     -9.834  0.2536E-14  0.2536E-14  0.1110E-15  0.1110E-15
     -9.790  0.4057E-13  0.4057E-13  0.1887E-14  0.1887E-14
     -9.747  0.4514E-12  0.4514E-12  0.2165E-13  0.2165E-13
     -9.703  0.4724E-11  0.4724E-11  0.2285E-12  0.2285E-12
     -9.659  0.4496E-10  0.4496E-10  0.2197E-11  0.2197E-11
     -9.615  0.3889E-09  0.3889E-09  0.1923E-10  0.1923E-10
     -9.572  0.3059E-08  0.3059E-08  0.1532E-09  0.1532E-09
     -9.528  0.2188E-07  0.2188E-07  0.1111E-08  0.1111E-08
     -9.484  0.1422E-06  0.1422E-06  0.7338E-08  0.7338E-08
     -9.440  0.8407E-06  0.8407E-06  0.4415E-07  0.4415E-07
     -9.396  0.4519E-05  0.4519E-05  0.2420E-06  0.2420E-06
     -9.353  0.2208E-04  0.2208E-04  0.1209E-05  0.1209E-05
     -9.309  0.9810E-04  0.9810E-04  0.5504E-05  0.5504E-05
     -9.265  0.3963E-03  0.3963E-03  0.2285E-04  0.2285E-04
     -9.221  0.1456E-02  0.1456E-02  0.8658E-04  0.8658E-04
     -9.177  0.4861E-02  0.4861E-02  0.2994E-03  0.2994E-03
     -9.134  0.1476E-01  0.1476E-01  0.9457E-03  0.9457E-03
     -9.090  0.4075E-01  0.4075E-01  0.2730E-02  0.2730E-02
     -9.046  0.1023E+00  0.1023E+00  0.7209E-02  0.7209E-02
     -9.002  0.2335E+00  0.2335E+00  0.1743E-01  0.1743E-01
     -8.959  0.4847E+00  0.4847E+00  0.3866E-01  0.3866E-01
     -8.915  0.9148E+00  0.9148E+00  0.7871E-01  0.7871E-01
     -8.871  0.1570E+01  0.1570E+01  0.1474E+00  0.1474E+00
     -8.827  0.2450E+01  0.2450E+01  0.2547E+00  0.2547E+00
     -8.783  0.3476E+01  0.3476E+01  0.4069E+00  0.4069E+00
     -8.740  0.4485E+01  0.4485E+01  0.6032E+00  0.6032E+00
     -8.696  0.5264E+01  0.5264E+01  0.8337E+00  0.8337E+00
     -8.652  0.5624E+01  0.5624E+01  0.1080E+01  0.1080E+01
     -8.608  0.5481E+01  0.5481E+01  0.1320E+01  0.1320E+01
     -8.564  0.4904E+01  0.4904E+01  0.1535E+01  0.1535E+01
     -8.521  0.4104E+01  0.4104E+01  0.1714E+01  0.1714E+01
     -8.477  0.3375E+01  0.3375E+01  0.1862E+01  0.1862E+01
     -8.433  0.3011E+01  0.3011E+01  0.1994E+01  0.1994E+01
     -8.389  0.3240E+01  0.3240E+01  0.2136E+01  0.2136E+01
     -8.346  0.4163E+01  0.4163E+01  0.2318E+01  0.2318E+01
     -8.302  0.5711E+01  0.5711E+01  0.2568E+01  0.2568E+01
     -8.258  0.7623E+01  0.7623E+01  0.2902E+01  0.2902E+01
     -8.214  0.9482E+01  0.9482E+01  0.3317E+01  0.3317E+01
     -8.170  0.1081E+02  0.1081E+02  0.3790E+01  0.3790E+01
     -8.127  0.1124E+02  0.1124E+02  0.4283E+01  0.4283E+01
     -8.083  0.1064E+02  0.1064E+02  0.4749E+01  0.4749E+01
     -8.039  0.9158E+01  0.9158E+01  0.5150E+01  0.5150E+01
     -7.995  0.7168E+01  0.7168E+01  0.5463E+01  0.5463E+01
     -7.952  0.5102E+01  0.5102E+01  0.5687E+01  0.5687E+01
     -7.908  0.3302E+01  0.3302E+01  0.5831E+01  0.5831E+01
     -7.864  0.1943E+01  0.1943E+01  0.5916E+01  0.5916E+01
     -7.820  0.1040E+01  0.1040E+01  0.5962E+01  0.5962E+01
     -7.776  0.5060E+00  0.5060E+00  0.5984E+01  0.5984E+01
     -7.733  0.2239E+00  0.2239E+00  0.5994E+01  0.5994E+01
     -7.689  0.9005E-01  0.9005E-01  0.5998E+01  0.5998E+01
     -7.645  0.3294E-01  0.3294E-01  0.5999E+01  0.5999E+01
     -7.601  0.1095E-01  0.1095E-01  0.6000E+01  0.6000E+01
     -7.557  0.3313E-02  0.3313E-02  0.6000E+01  0.6000E+01
     -7.514  0.9109E-03  0.9109E-03  0.6000E+01  0.6000E+01
     -7.470  0.2281E-03  0.2281E-03  0.6000E+01  0.6000E+01
     -7.426  0.5418E-04  0.5418E-04  0.6000E+01  0.6000E+01
     -7.382  0.2346E-04  0.2346E-04  0.6000E+01  0.6000E+01
     -7.339  0.6313E-04  0.6313E-04  0.6000E+01  0.6000E+01
     -7.295  0.2664E-03  0.2664E-03  0.6000E+01  0.6000E+01
     -7.251  0.1053E-02  0.1053E-02  0.6000E+01  0.6000E+01
     -7.207  0.3792E-02  0.3792E-02  0.6000E+01  0.6000E+01
     -7.163  0.1241E-01  0.1241E-01  0.6001E+01  0.6001E+01
     -7.120  0.3693E-01  0.3693E-01  0.6002E+01  0.6002E+01
     -7.076  0.9991E-01  0.9991E-01  0.6007E+01  0.6007E+01
     -7.032  0.2458E+00  0.2458E+00  0.6018E+01  0.6018E+01
     -6.988  0.5498E+00  0.5498E+00  0.6042E+01  0.6042E+01
     -6.944  0.1118E+01  0.1118E+01  0.6091E+01  0.6091E+01
     -6.901  0.2069E+01  0.2069E+01  0.6181E+01  0.6181E+01
     -6.857  0.3479E+01  0.3479E+01  0.6333E+01  0.6333E+01
     -6.813  0.5319E+01  0.5319E+01  0.6566E+01  0.6566E+01
     -6.769  0.7396E+01  0.7396E+01  0.6890E+01  0.6890E+01
     -6.726  0.9351E+01  0.9351E+01  0.7300E+01  0.7300E+01
     -6.682  0.1075E+02  0.1075E+02  0.7770E+01  0.7770E+01
     -6.638  0.1124E+02  0.1124E+02  0.8262E+01  0.8262E+01
     -6.594  0.1068E+02  0.1068E+02  0.8730E+01  0.8730E+01
     -6.550  0.9233E+01  0.9233E+01  0.9134E+01  0.9134E+01
     -6.507  0.7256E+01  0.7256E+01  0.9452E+01  0.9452E+01
     -6.463  0.5186E+01  0.5186E+01  0.9679E+01  0.9679E+01
     -6.419  0.3370E+01  0.3370E+01  0.9827E+01  0.9827E+01
     -6.375  0.1991E+01  0.1991E+01  0.9914E+01  0.9914E+01
     -6.332  0.1070E+01  0.1070E+01  0.9961E+01  0.9961E+01
     -6.288  0.5225E+00  0.5225E+00  0.9984E+01  0.9984E+01
     -6.244  0.2321E+00  0.2321E+00  0.9994E+01  0.9994E+01
     -6.200  0.9374E-01  0.9374E-01  0.9998E+01  0.9998E+01
     -6.156  0.3443E-01  0.3443E-01  0.9999E+01  0.9999E+01
     -6.113  0.1150E-01  0.1150E-01  0.1000E+02  0.1000E+02
     -6.069  0.3490E-02  0.3490E-02  0.1000E+02  0.1000E+02
     -6.025  0.9635E-03  0.9635E-03  0.1000E+02  0.1000E+02
     -5.981  0.2418E-03  0.2418E-03  0.1000E+02  0.1000E+02
     -5.937  0.5519E-04  0.5519E-04  0.1000E+02  0.1000E+02
     -5.894  0.1145E-04  0.1145E-04  0.1000E+02  0.1000E+02
     -5.850  0.2161E-05  0.2161E-05  0.1000E+02  0.1000E+02
     -5.806  0.3706E-06  0.3706E-06  0.1000E+02  0.1000E+02
     -5.762  0.5780E-07  0.5780E-07  0.1000E+02  0.1000E+02
     -5.719  0.8195E-08  0.8195E-08  0.1000E+02  0.1000E+02
     -5.675  0.1056E-08  0.1056E-08  0.1000E+02  0.1000E+02
     -5.631  0.1239E-09  0.1239E-09  0.1000E+02  0.1000E+02
     -5.587  0.1365E-10  0.1365E-10  0.1000E+02  0.1000E+02
     -5.543  0.6233E-11  0.6233E-11  0.1000E+02  0.1000E+02
     -5.500  0.4853E-10  0.4853E-10  0.1000E+02  0.1000E+02
     -5.456  0.4302E-09  0.4302E-09  0.1000E+02  0.1000E+02
     -5.412  0.3474E-08  0.3474E-08  0.1000E+02  0.1000E+02
     -5.368  0.2551E-07  0.2551E-07  0.1000E+02  0.1000E+02
     -5.324  0.1704E-06  0.1704E-06  0.1000E+02  0.1000E+02
     -5.281  0.1034E-05  0.1034E-05  0.1000E+02  0.1000E+02
     -5.237  0.5707E-05  0.5707E-05  0.1000E+02  0.1000E+02
     -5.193  0.2864E-04  0.2864E-04  0.1000E+02  0.1000E+02
     -5.149  0.1307E-03  0.1307E-03  0.1000E+02  0.1000E+02
     -5.106  0.5420E-03  0.5420E-03  0.1000E+02  0.1000E+02
     -5.062  0.2044E-02  0.2044E-02  0.1000E+02  0.1000E+02
     -5.018  0.7011E-02  0.7011E-02  0.1000E+02  0.1000E+02
     -4.974  0.2186E-01  0.2186E-01  0.1000E+02  0.1000E+02
     -4.930  0.6198E-01  0.6199E-01  0.1000E+02  0.1000E+02
     -4.887  0.1598E+00  0.1598E+00  0.1001E+02  0.1001E+02
     -4.843  0.3746E+00  0.3746E+00  0.1003E+02  0.1003E+02
     -4.799  0.7983E+00  0.7983E+00  0.1006E+02  0.1006E+02
     -4.755  0.1547E+01  0.1547E+01  0.1013E+02  0.1013E+02
     -4.712  0.2726E+01  0.2726E+01  0.1025E+02  0.1025E+02
     -4.668  0.4369E+01  0.4369E+01  0.1044E+02  0.1044E+02
     -4.624  0.6365E+01  0.6365E+01  0.1072E+02  0.1072E+02
     -4.580  0.8433E+01  0.8433E+01  0.1109E+02  0.1109E+02
     -4.536  0.1016E+02  0.1016E+02  0.1153E+02  0.1153E+02
     -4.493  0.1113E+02  0.1113E+02  0.1202E+02  0.1202E+02
     -4.449  0.1108E+02  0.1108E+02  0.1251E+02  0.1251E+02
     -4.405  0.1004E+02  0.1004E+02  0.1295E+02  0.1295E+02
     -4.361  0.8266E+01  0.8266E+01  0.1331E+02  0.1331E+02
     -4.317  0.6190E+01  0.6190E+01  0.1358E+02  0.1358E+02
     -4.274  0.4215E+01  0.4215E+01  0.1376E+02  0.1376E+02
     -4.230  0.2609E+01  0.2609E+01  0.1388E+02  0.1388E+02
     -4.186  0.1469E+01  0.1469E+01  0.1394E+02  0.1394E+02
     -4.142  0.7520E+00  0.7520E+00  0.1397E+02  0.1397E+02
     -4.099  0.3500E+00  0.3500E+00  0.1399E+02  0.1399E+02
     -4.055  0.1481E+00  0.1481E+00  0.1400E+02  0.1400E+02
     -4.011  0.5700E-01  0.5700E-01  0.1400E+02  0.1400E+02
     -3.967  0.1995E-01  0.1995E-01  0.1400E+02  0.1400E+02
     -3.923  0.6346E-02  0.6346E-02  0.1400E+02  0.1400E+02
     -3.880  0.1836E-02  0.1836E-02  0.1400E+02  0.1400E+02
     -3.836  0.4839E-03  0.4839E-03  0.1400E+02  0.1400E+02
     -3.792  0.1213E-03  0.1213E-03  0.1400E+02  0.1400E+02
     -3.748  0.5307E-04  0.5307E-04  0.1400E+02  0.1400E+02
     -3.704  0.1274E-03  0.1274E-03  0.1400E+02  0.1400E+02
     -3.661  0.4883E-03  0.4883E-03  0.1400E+02  0.1400E+02
     -3.617  0.1764E-02  0.1764E-02  0.1400E+02  0.1400E+02
     -3.573  0.5806E-02  0.5806E-02  0.1400E+02  0.1400E+02
     -3.529  0.1737E-01  0.1737E-01  0.1400E+02  0.1400E+02
     -3.486  0.4726E-01  0.4726E-01  0.1400E+02  0.1400E+02
     -3.442  0.1169E+00  0.1169E+00  0.1401E+02  0.1401E+02
     -3.398  0.2630E+00  0.2630E+00  0.1402E+02  0.1402E+02
     -3.354  0.5379E+00  0.5380E+00  0.1404E+02  0.1404E+02
     -3.310  0.1000E+01  0.1000E+01  0.1409E+02  0.1409E+02
     -3.267  0.1692E+01  0.1692E+01  0.1416E+02  0.1416E+02
     -3.223  0.2601E+01  0.2601E+01  0.1428E+02  0.1428E+02
     -3.179  0.3637E+01  0.3637E+01  0.1443E+02  0.1443E+02
     -3.135  0.4624E+01  0.4624E+01  0.1464E+02  0.1464E+02
     -3.092  0.5346E+01  0.5346E+01  0.1487E+02  0.1487E+02
     -3.048  0.5619E+01  0.5619E+01  0.1512E+02  0.1512E+02
     -3.004  0.5371E+01  0.5371E+01  0.1535E+02  0.1535E+02
     -2.960  0.4668E+01  0.4668E+01  0.1556E+02  0.1556E+02
     -2.916  0.3689E+01  0.3689E+01  0.1572E+02  0.1572E+02
     -2.873  0.2651E+01  0.2651E+01  0.1583E+02  0.1583E+02
     -2.829  0.1732E+01  0.1732E+01  0.1591E+02  0.1591E+02
     -2.785  0.1029E+01  0.1029E+01  0.1596E+02  0.1596E+02
     -2.741  0.5560E+00  0.5560E+00  0.1598E+02  0.1598E+02
     -2.697  0.2731E+00  0.2731E+00  0.1599E+02  0.1599E+02
     -2.654  0.1220E+00  0.1220E+00  0.1600E+02  0.1600E+02
     -2.610  0.4954E-01  0.4954E-01  0.1600E+02  0.1600E+02
     -2.566  0.1830E-01  0.1829E-01  0.1600E+02  0.1600E+02
     -2.522  0.6143E-02  0.6143E-02  0.1600E+02  0.1600E+02
     -2.479  0.1875E-02  0.1875E-02  0.1600E+02  0.1600E+02
     -2.435  0.5206E-03  0.5206E-03  0.1600E+02  0.1600E+02
     -2.391  0.1314E-03  0.1314E-03  0.1600E+02  0.1600E+02
     -2.347  0.3015E-04  0.3015E-04  0.1600E+02  0.1600E+02
     -2.303  0.6292E-05  0.6292E-05  0.1600E+02  0.1600E+02
     -2.260  0.1194E-05  0.1194E-05  0.1600E+02  0.1600E+02
     -2.216  0.2059E-06  0.2059E-06  0.1600E+02  0.1600E+02
     -2.172  0.3229E-07  0.3229E-07  0.1600E+02  0.1600E+02
     -2.128  0.4603E-08  0.4603E-08  0.1600E+02  0.1600E+02
     -2.084  0.5967E-09  0.5967E-09  0.1600E+02  0.1600E+02
     -2.041  0.7033E-10  0.7033E-10  0.1600E+02  0.1600E+02
     -1.997  0.7536E-11  0.7536E-11  0.1600E+02  0.1600E+02
     -1.953  0.7303E-12  0.7303E-12  0.1600E+02  0.1600E+02
     -1.909  0.6593E-13  0.6593E-13  0.1600E+02  0.1600E+02
     -1.866  0.5071E-14  0.5071E-14  0.1600E+02  0.1600E+02
     -1.822  0.0000E+00  0.0000E+00  0.1600E+02  0.1600E+02
     -1.778  0.0000E+00  0.0000E+00  0.1600E+02  0.1600E+02
     -1.734  0.0000E+00  0.0000E+00  0.1600E+02  0.1600E+02
     -1.690  0.0000E+00  0.0000E+00  0.1600E+02  0.1600E+02
     -1.647  0.0000E+00  0.0000E+00  0.1600E+02  0.1600E+02
     -1.603  0.0000E+00  0.0000E+00  0.1600E+02  0.1600E+02
     -1.559  0.0000E+00  0.0000E+00  0.1600E+02  0.1600E+02
     -1.515  0.0000E+00  0.0000E+00  0.1600E+02  0.1600E+02
     -1.472  0.0000E+00  0.0000E+00  0.1600E+02  0.1600E+02
     -1.428  0.0000E+00  0.0000E+00  0.1600E+02  0.1600E+02
     -1.384  0.0000E+00  0.0000E+00  0.1600E+02  0.1600E+02
     -1.340  0.0000E+00  0.0000E+00  0.1600E+02  0.1600E+02
     -1.296  0.7607E-14  0.7607E-14  0.1600E+02  0.1600E+02
     -1.253  0.1014E-12  0.9889E-13  0.1600E+02  0.1600E+02
     -1.209  0.1174E-11  0.1154E-11  0.1600E+02  0.1600E+02
     -1.165  0.1232E-10  0.1212E-10  0.1600E+02  0.1600E+02
     -1.121  0.1178E-09  0.1159E-09  0.1600E+02  0.1600E+02
     -1.077  0.1023E-08  0.1007E-08  0.1600E+02  0.1600E+02
     -1.034  0.8085E-08  0.7959E-08  0.1600E+02  0.1600E+02
     -0.990  0.5809E-07  0.5720E-07  0.1600E+02  0.1600E+02
     -0.946  0.3795E-06  0.3738E-06  0.1600E+02  0.1600E+02
     -0.902  0.2254E-05  0.2221E-05  0.1600E+02  0.1600E+02
     -0.859  0.1217E-04  0.1200E-04  0.1600E+02  0.1600E+02
     -0.815  0.5980E-04  0.5897E-04  0.1600E+02  0.1600E+02
     -0.771  0.2671E-03  0.2635E-03  0.1600E+02  0.1600E+02
     -0.727  0.1085E-02  0.1071E-02  0.1600E+02  0.1600E+02
     -0.683  0.4006E-02  0.3956E-02  0.1600E+02  0.1600E+02
     -0.640  0.1345E-01  0.1330E-01  0.1600E+02  0.1600E+02
     -0.596  0.4109E-01  0.4063E-01  0.1600E+02  0.1600E+02
     -0.552  0.1141E+00  0.1129E+00  0.1601E+02  0.1601E+02
     -0.508  0.2882E+00  0.2854E+00  0.1602E+02  0.1602E+02
     -0.464  0.6619E+00  0.6561E+00  0.1605E+02  0.1605E+02
     -0.421  0.1383E+01  0.1371E+01  0.1611E+02  0.1611E+02
     -0.377  0.2626E+01  0.2607E+01  0.1622E+02  0.1622E+02
     -0.333  0.4536E+01  0.4508E+01  0.1642E+02  0.1642E+02
     -0.289  0.7126E+01  0.7089E+01  0.1674E+02  0.1673E+02
     -0.246  0.1018E+02  0.1014E+02  0.1718E+02  0.1717E+02
     -0.202  0.1323E+02  0.1319E+02  0.1776E+02  0.1775E+02
     -0.158  0.1563E+02  0.1560E+02  0.1844E+02  0.1843E+02
     -0.114  0.1679E+02  0.1678E+02  0.1918E+02  0.1917E+02
     -0.070  0.1641E+02  0.1642E+02  0.1990E+02  0.1989E+02
     -0.027  0.1459E+02  0.1462E+02  0.2054E+02  0.2053E+02
      0.017  0.1181E+02  0.1185E+02  0.2105E+02  0.2105E+02
      0.061  0.8723E+01  0.8762E+01  0.2144E+02  0.2143E+02
      0.105  0.5935E+01  0.5967E+01  0.2170E+02  0.2169E+02
      0.148  0.3837E+01  0.3855E+01  0.2186E+02  0.2186E+02
      0.192  0.2580E+01  0.2580E+01  0.2198E+02  0.2197E+02
      0.236  0.2129E+01  0.2112E+01  0.2207E+02  0.2207E+02
      0.280  0.2348E+01  0.2314E+01  0.2217E+02  0.2217E+02
      0.324  0.3039E+01  0.2996E+01  0.2231E+02  0.2230E+02
      0.367  0.3966E+01  0.3921E+01  0.2248E+02  0.2247E+02
      0.411  0.4861E+01  0.4824E+01  0.2269E+02  0.2268E+02
      0.455  0.5469E+01  0.5450E+01  0.2293E+02  0.2292E+02
      0.499  0.5608E+01  0.5613E+01  0.2318E+02  0.2317E+02
      0.543  0.5233E+01  0.5261E+01  0.2341E+02  0.2340E+02
      0.586  0.4442E+01  0.4484E+01  0.2360E+02  0.2359E+02
      0.630  0.3428E+01  0.3476E+01  0.2375E+02  0.2375E+02
      0.674  0.2405E+01  0.2450E+01  0.2386E+02  0.2385E+02
      0.718  0.1535E+01  0.1570E+01  0.2392E+02  0.2392E+02
      0.761  0.8906E+00  0.9148E+00  0.2396E+02  0.2396E+02
      0.805  0.4699E+00  0.4847E+00  0.2398E+02  0.2398E+02
      0.849  0.2254E+00  0.2335E+00  0.2399E+02  0.2399E+02
      0.893  0.9832E-01  0.1023E+00  0.2400E+02  0.2400E+02
      0.937  0.3899E-01  0.4075E-01  0.2400E+02  0.2400E+02
      0.980  0.1406E-01  0.1476E-01  0.2400E+02  0.2400E+02
      1.024  0.4611E-02  0.4861E-02  0.2400E+02  0.2400E+02
      1.068  0.1375E-02  0.1456E-02  0.2400E+02  0.2400E+02
      1.112  0.3727E-03  0.3963E-03  0.2400E+02  0.2400E+02
      1.156  0.9186E-04  0.9810E-04  0.2400E+02  0.2400E+02
      1.199  0.2059E-04  0.2208E-04  0.2400E+02  0.2400E+02
      1.243  0.4195E-05  0.4519E-05  0.2400E+02  0.2400E+02
      1.287  0.7771E-06  0.8407E-06  0.2400E+02  0.2400E+02
      1.331  0.1309E-06  0.1422E-06  0.2400E+02  0.2400E+02
      1.374  0.2005E-07  0.2188E-07  0.2400E+02  0.2400E+02
      1.418  0.2791E-08  0.3059E-08  0.2400E+02  0.2400E+02
      1.462  0.3533E-09  0.3889E-09  0.2400E+02  0.2400E+02
      1.506  0.4066E-10  0.4496E-10  0.2400E+02  0.2400E+02
      1.550  0.4250E-11  0.4721E-11  0.2400E+02  0.2400E+02
      1.593  0.4057E-12  0.4564E-12  0.2400E+02  0.2400E+02
      1.637  0.4057E-13  0.4057E-13  0.2400E+02  0.2400E+02
      1.681  0.0000E+00  0.0000E+00  0.2400E+02  0.2400E+02
      1.725  0.0000E+00  0.0000E+00  0.2400E+02  0.2400E+02
      1.768  0.0000E+00  0.0000E+00  0.2400E+02  0.2400E+02
      1.812  0.0000E+00  0.0000E+00  0.2400E+02  0.2400E+02
      1.856  0.0000E+00  0.0000E+00  0.2400E+02  0.2400E+02
      1.900  0.0000E+00  0.0000E+00  0.2400E+02  0.2400E+02
      1.944  0.0000E+00  0.0000E+00  0.2400E+02  0.2400E+02
      1.987  0.0000E+00  0.0000E+00  0.2400E+02  0.2400E+02
      2.031  0.0000E+00  0.0000E+00  0.2400E+02  0.2400E+02
      2.075  0.0000E+00  0.0000E+00  0.2400E+02  0.2400E+02
      2.119  0.0000E+00  0.0000E+00  0.2400E+02  0.2400E+02
      2.163  0.0000E+00  0.0000E+00  0.2400E+02  0.2400E+02
      2.206  0.0000E+00  0.0000E+00  0.2400E+02  0.2400E+02
      2.250  0.0000E+00  0.0000E+00  0.2400E+02  0.2400E+02
      2.294  0.0000E+00  0.0000E+00  0.2400E+02  0.2400E+02
      2.338  0.0000E+00  0.0000E+00  0.2400E+02  0.2400E+02
      2.381  0.0000E+00  0.0000E+00  0.2400E+02  0.2400E+02
      2.425  0.0000E+00  0.0000E+00  0.2400E+02  0.2400E+02
      2.469  0.0000E+00  0.0000E+00  0.2400E+02  0.2400E+02
