    8    8    1    2
  0.4500000E+03  0.1500000E-08  0.1500000E-08  0.1600000E-08  0.5000000E-15
  1.000000000000000E-004
  CAR 
 unknown system                          
      8      1     12
 
  0.0000000E+00  0.0000000E+00  0.0000000E+00  0.1000000E+01
    1       -8.666109     -8.666109   1.000000   1.000000
    2       -8.151850     -8.151850   1.000000   1.000000
    3       -8.151850     -8.151850   1.000000   1.000000
    4       -6.661365     -6.661365   0.500005   0.500005
    5       -6.661361     -6.661361   0.499995   0.499995
    6       -4.494439     -4.494440   0.000000   0.000000
    7       -4.494435     -4.494435   0.000000   0.000000
    8       -3.068545     -3.068545   0.000000   0.000000
    9       -0.128843     -0.128966   0.000000   0.000000
   10       -0.128843     -0.128966   0.000000   0.000000
   11       -0.116893     -0.114882   0.000000   0.000000
   12        0.467026      0.469016   0.000000   0.000000
