       N       E                     dE             d eps       ncg     rms          rms(c)
DAV:   1     0.178389928081E+02    0.17839E+02   -0.83953E+02    48   0.183E+02
DAV:   2    -0.531389537463E+01   -0.23153E+02   -0.23052E+02    64   0.493E+01
DAV:   3    -0.100595102218E+02   -0.47456E+01   -0.45690E+01    80   0.265E+01
DAV:   4    -0.102020255587E+02   -0.14252E+00   -0.13273E+00    68   0.427E+00
DAV:   5    -0.102025280297E+02   -0.50247E-03   -0.50232E-03    56   0.230E-01    0.132E+00
DAV:   6    -0.102378280767E+02   -0.35300E-01   -0.91639E-03    56   0.530E-01    0.808E-01
DAV:   7    -0.102711177576E+02   -0.33290E-01   -0.18361E-02    48   0.686E-01    0.576E-02
DAV:   8    -0.102721613501E+02   -0.10436E-02   -0.27075E-04    72   0.881E-02    0.187E-02
DAV:   9    -0.102723500653E+02   -0.18872E-03   -0.36508E-05    56   0.333E-02    0.684E-03
DAV:  10    -0.102724559714E+02   -0.10591E-03   -0.13771E-05    56   0.161E-02    0.612E-03
DAV:  11    -0.102726030203E+02   -0.14705E-03   -0.25753E-05    48   0.177E-02    0.220E-03
DAV:  12    -0.102726388616E+02   -0.35841E-04   -0.10900E-06    32   0.498E-03    0.166E-03
DAV:  13    -0.102727097555E+02   -0.70894E-04   -0.75791E-06    48   0.101E-02    0.907E-04
DAV:  14    -0.102727313479E+02   -0.21592E-04   -0.41292E-07    32   0.371E-03    0.582E-04
DAV:  15    -0.102727837002E+02   -0.52352E-04   -0.24006E-06    48   0.519E-03    0.317E-04
DAV:  16    -0.102728011356E+02   -0.17435E-04   -0.53556E-07    32   0.281E-03    0.135E-04
DAV:  17    -0.102728047455E+02   -0.36099E-05   -0.67166E-08    40   0.948E-04    0.897E-05
DAV:  18    -0.102728087388E+02   -0.39933E-05   -0.78219E-08    36   0.108E-03    0.396E-05
DAV:  19    -0.102728095556E+02   -0.81683E-06   -0.14045E-08    32   0.489E-04
   1 F= -.10272810E+02 E0= -.10159972E+02  d E =-.225676E+00  mag=    -0.0000
