<?xml version="1.0" encoding="ISO-8859-1"?>
<modeling>
 <generator>
  <i name="program" type="string">vasp </i>
  <i name="version" type="string">5.4.4.18Apr17-6-g9f103f2a35  </i>
  <i name="subversion" type="string">(build Aug 24 2024 05:40:03) complex            parallel </i>
  <i name="platform" type="string">IFC22_IMPI </i>
  <i name="date" type="string">2024 11 22 </i>
  <i name="time" type="string">21:43:49 </i>
 </generator>
 <incar>
  <i type="string" name="PREC">normal</i>
  <i type="int" name="ISPIN">     2</i>
  <i type="int" name="ICHARG">     2</i>
  <i type="int" name="NELM">   100</i>
  <i name="EDIFF">      0.00000100</i>
  <i type="int" name="NSW">     0</i>
  <i name="ENCUT">    300.00000000</i>
  <i name="NUPDOWN">      0.00000000</i>
  <i type="int" name="ISMEAR">     0</i>
  <i name="SIGMA">      0.20000000</i>
  <i type="logical" name="LWAVE"> F  </i>
  <i type="logical" name="LCHARG"> F  </i>
  <v type="int" name="KPOINT_BSE">    -1     0     0     0</v>
  <i type="int" name="NELM">   100</i>
 </incar>
 <structure name="primitive_cell" >
  <crystal>
   <varray name="basis" >
    <v>      15.00000000       0.00000000       0.00000000 </v>
    <v>       0.00000000      15.00000000       0.00000000 </v>
    <v>       0.00000000       0.00000000       2.00000000 </v>
   </varray>
   <i name="volume">    450.00000000 </i>
   <varray name="rec_basis" >
    <v>       0.06666667      -0.00000000       0.00000000 </v>
    <v>       0.00000000       0.06666667       0.00000000 </v>
    <v>      -0.00000000      -0.00000000       0.50000000 </v>
   </varray>
  </crystal>
  <varray name="positions" >
   <v>       0.00000000       0.00000000       0.00000000 </v>
  </varray>
 </structure>
 <varray name="primitive_index" >
  <v type="int" >        1 </v>
 </varray>
 <kpoints>
  <generation param="Gamma">
   <v type="int" name="divisions">       1        1        1 </v>
   <v name="usershift">      0.00000000       0.00000000       0.00000000 </v>
   <v name="genvec1">      1.00000000      -0.00000000       0.00000000 </v>
   <v name="genvec2">      0.00000000       1.00000000       0.00000000 </v>
   <v name="genvec3">      0.00000000      -0.00000000       1.00000000 </v>
   <v name="shift">      0.00000000       0.00000000       0.00000000 </v>
  </generation>
  <varray name="kpointlist" >
   <v>       0.00000000       0.00000000       0.00000000 </v>
  </varray>
  <varray name="weights" >
   <v>       1.00000000 </v>
  </varray>
 </kpoints>
 <parameters>
  <separator name="general" >
   <i type="string" name="SYSTEM">unknown system</i>
   <i type="logical" name="LCOMPAT"> F  </i>
  </separator>
  <separator name="electronic" >
   <i type="string" name="PREC">normal</i>
   <i name="ENMAX">    300.00000000</i>
   <i name="ENAUG">    400.00000000</i>
   <i name="EDIFF">      0.00000100</i>
   <i type="int" name="IALGO">    38</i>
   <i type="int" name="IWAVPR">    10</i>
   <i type="int" name="NBANDS">    12</i>
   <i name="NELECT">      8.00000000</i>
   <i type="int" name="TURBO">     0</i>
   <i type="int" name="IRESTART">     0</i>
   <i type="int" name="NREBOOT">     0</i>
   <i type="int" name="NMIN">     0</i>
   <i name="EREF">      0.00000000</i>
   <separator name="electronic smearing" >
    <i type="int" name="ISMEAR">     0</i>
    <i name="SIGMA">      0.20000000</i>
    <i name="KSPACING">      0.50000000</i>
    <i type="logical" name="KGAMMA"> T  </i>
   </separator>
   <separator name="electronic projectors" >
    <i type="logical" name="LREAL"> F  </i>
    <v name="ROPT">      0.00000000</v>
    <i type="int" name="LMAXPAW">  -100</i>
    <i type="int" name="LMAXMIX">     2</i>
    <i type="logical" name="NLSPLINE"> F  </i>
   </separator>
   <separator name="electronic startup" >
    <i type="int" name="ISTART">     0</i>
    <i type="int" name="ICHARG">     2</i>
    <i type="int" name="INIWAV">     1</i>
   </separator>
   <separator name="electronic spin" >
    <i type="int" name="ISPIN">     2</i>
    <i type="logical" name="LNONCOLLINEAR"> F  </i>
    <v name="MAGMOM">      0.00000000      0.00000000      0.00000000      0.00000000      0.00000000      0.00000000      0.00000000      0.00000000</v>
    <i name="NUPDOWN">      0.00000000</i>
    <i type="logical" name="LSORBIT"> F  </i>
    <v name="SAXIS">      0.00000000      0.00000000      1.00000000</v>
    <i type="logical" name="LSPIRAL"> F  </i>
    <v name="QSPIRAL">      0.00000000      0.00000000      0.00000000</v>
    <i type="logical" name="LZEROZ"> F  </i>
   </separator>
   <separator name="electronic exchange-correlation" >
    <i type="logical" name="LASPH"> F  </i>
    <i type="logical" name="LMETAGGA"> F  </i>
   </separator>
   <separator name="electronic convergence" >
    <i type="int" name="NELM">   100</i>
    <i type="int" name="NELMDL">    -5</i>
    <i type="int" name="NELMIN">     2</i>
    <i name="ENINI">    300.00000000</i>
    <separator name="electronic convergence detail" >
     <i type="logical" name="LDIAG"> T  </i>
     <i type="logical" name="LSUBROT"> F  </i>
     <i name="WEIMIN">      0.00000000</i>
     <i name="EBREAK">      0.00000002</i>
     <i name="DEPER">      0.30000000</i>
     <i type="int" name="NRMM">     4</i>
     <i name="TIME">      0.40000000</i>
    </separator>
   </separator>
   <separator name="electronic mixer" >
    <i name="AMIX">      0.40000000</i>
    <i name="BMIX">      1.00000000</i>
    <i name="AMIN">      0.10000000</i>
    <i name="AMIX_MAG">      1.60000000</i>
    <i name="BMIX_MAG">      1.00000000</i>
    <separator name="electronic mixer details" >
     <i type="int" name="IMIX">     4</i>
     <i type="logical" name="MIXFIRST"> F  </i>
     <i type="int" name="MAXMIX">   -45</i>
     <i name="WC">    100.00000000</i>
     <i type="int" name="INIMIX">     1</i>
     <i type="int" name="MIXPRE">     1</i>
     <i type="int" name="MREMOVE">     5</i>
    </separator>
   </separator>
   <separator name="electronic dipolcorrection" >
    <i type="logical" name="LDIPOL"> F  </i>
    <i type="logical" name="LMONO"> F  </i>
    <i type="int" name="IDIPOL">     0</i>
    <i name="EPSILON">      1.00000000</i>
    <v name="DIPOL">   -100.00000000   -100.00000000   -100.00000000</v>
    <i name="EFIELD">      0.00000000</i>
   </separator>
  </separator>
  <separator name="grids" >
   <i type="int" name="NGX">    64</i>
   <i type="int" name="NGY">    64</i>
   <i type="int" name="NGZ">    70</i>
   <i type="int" name="NGXF">   128</i>
   <i type="int" name="NGYF">   128</i>
   <i type="int" name="NGZF">   140</i>
   <i type="logical" name="ADDGRID"> F  </i>
  </separator>
  <separator name="ionic" >
   <i type="int" name="NSW">     0</i>
   <i type="int" name="IBRION">    -1</i>
   <i type="int" name="MDALGO">     0</i>
   <i type="int" name="ISIF">     2</i>
   <i name="PSTRESS">      0.00000000</i>
   <i name="EDIFFG">      0.00001000</i>
   <i type="int" name="NFREE">     0</i>
   <i name="POTIM">      0.50000000</i>
   <i name="SMASS">     -3.00000000</i>
   <i name="SCALEE">      1.00000000</i>
  </separator>
  <separator name="ionic md" >
   <i name="TEBEG">      0.00010000</i>
   <i name="TEEND">      0.00010000</i>
   <i type="int" name="NBLOCK">     1</i>
   <i type="int" name="KBLOCK">     1</i>
   <i type="int" name="NPACO">   256</i>
   <i name="APACO">     16.00000000</i>
  </separator>
  <separator name="symmetry" >
   <i type="int" name="ISYM">     2</i>
   <i name="SYMPREC">      0.00001000</i>
  </separator>
  <separator name="dos" >
   <i type="int" name="LORBIT">     0</i>
   <v name="RWIGS">     -1.00000000</v>
   <i type="int" name="NEDOS">   301</i>
   <i name="EMIN">     10.00000000</i>
   <i name="EMAX">    -10.00000000</i>
   <i name="EFERMI">      0.00000000</i>
  </separator>
  <separator name="writing" >
   <i type="int" name="NWRITE">     2</i>
   <i type="logical" name="LWAVE"> F  </i>
   <i type="logical" name="LDOWNSAMPLE"> F  </i>
   <i type="logical" name="LCHARG"> F  </i>
   <i type="logical" name="LPARD"> F  </i>
   <i type="logical" name="LVTOT"> F  </i>
   <i type="logical" name="LVHAR"> F  </i>
   <i type="logical" name="LELF"> F  </i>
   <i type="logical" name="LOPTICS"> F  </i>
   <v name="STM">      0.00000000      0.00000000      0.00000000      0.00000000      0.00000000      0.00000000      0.00000000</v>
  </separator>
  <separator name="performance" >
   <i type="int" name="NPAR">     4</i>
   <i type="int" name="NSIM">     4</i>
   <i type="int" name="NBLK">    -1</i>
   <i type="logical" name="LPLANE"> T  </i>
   <i type="logical" name="LSCALAPACK"> T  </i>
   <i type="logical" name="LSCAAWARE"> F  </i>
   <i type="logical" name="LSCALU"> F  </i>
   <i type="logical" name="LASYNC"> F  </i>
   <i type="logical" name="LORBITALREAL"> F  </i>
  </separator>
  <separator name="miscellaneous" >
   <i type="int" name="IDIOT">     3</i>
   <i type="int" name="ISPECIAL">     0</i>
   <i type="logical" name="LMUSIC"> F  </i>
   <v name="POMASS">      1.00000000</v>
   <v name="DARWINR">      0.00000000</v>
   <v name="DARWINV">      1.00000000</v>
   <i type="logical" name="LCORR"> T  </i>
  </separator>
  <i type="logical" name="GGA_COMPAT"> T  </i>
  <i type="logical" name="LBERRY"> F  </i>
  <i type="int" name="ICORELEVEL">     0</i>
  <i type="logical" name="LDAU"> F  </i>
  <i type="int" name="I_CONSTRAINED_M">     0</i>
  <separator name="electronic exchange-correlation" >
   <i type="string" name="GGA">--</i>
   <i type="int" name="VOSKOWN">     0</i>
   <i type="logical" name="LHFCALC"> F  </i>
   <i type="string" name="PRECFOCK"></i>
   <i type="logical" name="LSYMGRAD"> F  </i>
   <i type="logical" name="LHFONE"> F  </i>
   <i type="logical" name="LRHFCALC"> F  </i>
   <i type="logical" name="LTHOMAS"> F  </i>
   <i type="logical" name="LMODELHF"> F  </i>
   <i name="ENCUT4O">     -1.00000000</i>
   <i type="int" name="EXXOEP">     0</i>
   <i type="int" name="FOURORBIT">     0</i>
   <i name="AEXX">      0.00000000</i>
   <i name="HFALPHA">      0.00000000</i>
   <i name="MCALPHA">      0.00000000</i>
   <i name="ALDAX">      1.00000000</i>
   <i name="AGGAX">      1.00000000</i>
   <i name="ALDAC">      1.00000000</i>
   <i name="AGGAC">      1.00000000</i>
   <i type="int" name="NKREDX">     1</i>
   <i type="int" name="NKREDY">     1</i>
   <i type="int" name="NKREDZ">     1</i>
   <i type="logical" name="SHIFTRED"> F  </i>
   <i type="logical" name="ODDONLY"> F  </i>
   <i type="logical" name="EVENONLY"> F  </i>
   <i type="int" name="LMAXFOCK">     0</i>
   <i type="int" name="NMAXFOCKAE">     0</i>
   <i type="logical" name="LFOCKAEDFT"> F  </i>
   <i name="HFSCREEN">      0.00000000</i>
   <i name="HFSCREENC">      0.00000000</i>
   <i type="int" name="NBANDSGWLOW">     0</i>
  </separator>
  <separator name="vdW DFT" >
   <i type="logical" name="LUSE_VDW"> F  </i>
   <i name="Zab_VDW">     -0.84910000</i>
   <i name="PARAM1">      0.12340000</i>
   <i name="PARAM2">      1.00000000</i>
   <i name="PARAM3">      0.00000000</i>
  </separator>
  <separator name="model GW" >
   <i type="int" name="MODEL_GW">     0</i>
   <i name="MODEL_EPS0">    270.00000000</i>
   <i name="MODEL_ALPHA">      1.00000000</i>
  </separator>
  <separator name="linear response parameters" >
   <i type="logical" name="LEPSILON"> F  </i>
   <i type="logical" name="LRPA"> F  </i>
   <i type="logical" name="LNABLA"> F  </i>
   <i type="logical" name="LVEL"> F  </i>
   <i type="int" name="KINTER">     0</i>
   <i name="CSHIFT">      0.10000000</i>
   <i name="OMEGAMAX">     -1.00000000</i>
   <i name="DEG_THRESHOLD">      0.00200000</i>
   <i name="RTIME">     -0.10000000</i>
   <i name="WPLASMAI">      0.00000000</i>
   <v name="DFIELD">      0.00000000      0.00000000      0.00000000</v>
   <v name="WPLASMA">      0.00000000      0.00000000      0.00000000      0.00000000      0.00000000      0.00000000      0.00000000      0.00000000      0.00000000</v>
  </separator>
  <separator name="orbital magnetization" >
   <i type="logical" name="NUCIND"> F  </i>
   <v name="MAGPOS">      0.00000000      0.00000000      0.00000000</v>
   <i type="logical" name="LNICSALL"> T  </i>
   <i type="logical" name="ORBITALMAG"> F  </i>
   <i type="logical" name="LMAGBLOCH"> F  </i>
   <i type="logical" name="LCHIMAG"> F  </i>
   <i type="logical" name="LGAUGE"> T  </i>
   <i type="int" name="MAGATOM">     0</i>
   <v name="MAGDIPOL">      0.00000000      0.00000000      0.00000000</v>
   <v name="AVECCONST">      0.00000000      0.00000000      0.00000000</v>
  </separator>
  <separator name="response functions" >
   <i type="logical" name="LADDER"> F  </i>
   <i type="logical" name="LRPAFORCE"> F  </i>
   <i type="logical" name="LFXC"> F  </i>
   <i type="logical" name="LHARTREE"> T  </i>
   <i type="int" name="IBSE">     0</i>
   <v type="int" name="KPOINT">    -1     0     0     0</v>
   <i type="logical" name="LTCTE"> F  </i>
   <i type="logical" name="LTETE"> F  </i>
   <i type="logical" name="LTRIPLET"> F  </i>
   <i type="logical" name="LFXCEPS"> F  </i>
   <i type="logical" name="LFXHEG"> F  </i>
   <i type="int" name="NATURALO">     2</i>
   <i type="logical" name="L2ORDER"> F  </i>
   <i type="logical" name="LMP2LT"> F  </i>
   <i type="logical" name="LUSEW"> F  </i>
   <i name="ENCUTGW">     -2.00000000</i>
   <i name="ENCUTGWSOFT">     -2.00000000</i>
   <i name="ENCUTLF">     -1.00000000</i>
   <i type="int" name="LMAXMP2">    -1</i>
   <i name="SCISSOR">      0.00000000</i>
   <i type="int" name="NOMEGA">     0</i>
   <i type="int" name="NOMEGAR">     0</i>
   <i type="int" name="NBANDSGW">    -1</i>
   <i type="int" name="NBANDSO">    -1</i>
   <i type="int" name="NBANDSV">    -1</i>
   <i type="int" name="NELM">   100</i>
   <i type="int" name="NELMHF">     1</i>
   <i type="int" name="DIM">     3</i>
   <i type="int" name="ANTIRES">     0</i>
   <i name="OMEGAMAX">    -30.00000000</i>
   <i name="OMEGAMIN">    -30.00000000</i>
   <i name="OMEGATL">   -200.00000000</i>
   <i type="int" name="OMEGAGRID">   140</i>
   <i name="CSHIFT">     -0.10000000</i>
   <i type="logical" name="SELFENERGY"> F  </i>
   <i type="logical" name="LSPECTRAL"> F  </i>
   <i type="logical" name="LSPECTRALGW"> F  </i>
   <i type="logical" name="LSINGLES"> F  </i>
   <i type="logical" name="LFERMIGW"> F  </i>
   <i type="logical" name="ODDONLYGW"> F  </i>
   <i type="logical" name="EVENONLYGW"> F  </i>
   <i type="int" name="NKREDLFX">     1</i>
   <i type="int" name="NKREDLFY">     1</i>
   <i type="int" name="NKREDLFZ">     1</i>
   <i type="int" name="MAXMEM">  2800</i>
   <i type="int" name="TELESCOPE">     0</i>
   <i type="int" name="TAUPAR">     1</i>
   <i type="int" name="OMEGAPAR">    -1</i>
   <i name="LAMBDA">      1.00000000</i>
  </separator>
  <separator name="External order field" >
   <i name="OFIELD_KAPPA">      0.00000000</i>
   <v name="OFIELD_K">      0.00000000      0.00000000      0.00000000</v>
   <i name="OFIELD_Q6_NEAR">      0.00000000</i>
   <i name="OFIELD_Q6_FAR">      0.00000000</i>
   <i name="OFIELD_A">      0.00000000</i>
  </separator>
 </parameters>
 <atominfo>
  <atoms>       8 </atoms>
  <types>       1 </types>
  <array name="atoms" >
   <dimension dim="1">ion</dimension>
   <field type="string">element</field>
   <field type="int">atomtype</field>
   <set>
    <rc><c>H </c><c>   1</c></rc>
    <rc><c>H </c><c>   1</c></rc>
    <rc><c>H </c><c>   1</c></rc>
    <rc><c>H </c><c>   1</c></rc>
    <rc><c>H </c><c>   1</c></rc>
    <rc><c>H </c><c>   1</c></rc>
    <rc><c>H </c><c>   1</c></rc>
    <rc><c>H </c><c>   1</c></rc>
   </set>
  </array>
  <array name="atomtypes" >
   <dimension dim="1">type</dimension>
   <field type="int">atomspertype</field>
   <field type="string">element</field>
   <field>mass</field>
   <field>valence</field>
   <field type="string">pseudopotential</field>
   <set>
    <rc><c>   8</c><c>H </c><c>      1.00000000</c><c>      1.00000000</c><c>  PAW_PBE H 15Jun2001                   </c></rc>
   </set>
  </array>
 </atominfo>
 <structure name="initialpos" >
  <crystal>
   <varray name="basis" >
    <v>      15.00000000       0.00000000       0.00000000 </v>
    <v>       0.00000000      15.00000000       0.00000000 </v>
    <v>       0.00000000       0.00000000      16.00000000 </v>
   </varray>
   <i name="volume">   3600.00000000 </i>
   <varray name="rec_basis" >
    <v>       0.06666667      -0.00000000       0.00000000 </v>
    <v>       0.00000000       0.06666667       0.00000000 </v>
    <v>      -0.00000000      -0.00000000       0.06250000 </v>
   </varray>
  </crystal>
  <varray name="positions" >
   <v>       0.00000000       0.00000000       0.00000000 </v>
   <v>       0.00000000       0.00000000       0.12500000 </v>
   <v>       0.00000000       0.00000000       0.25000000 </v>
   <v>       0.00000000       0.00000000       0.37500000 </v>
   <v>       0.00000000       0.00000000       0.50000000 </v>
   <v>       0.00000000       0.00000000       0.62500000 </v>
   <v>       0.00000000       0.00000000       0.75000000 </v>
   <v>       0.00000000       0.00000000       0.87500000 </v>
  </varray>
 </structure>
 <calculation>
  <scstep>
   <time name="dav">    0.56    0.56</time>
   <time name="total">    1.42    1.42</time>
   <energy>
    <i name="alphaZ">      0.04330964 </i>
    <i name="ewald">     33.89355901 </i>
    <i name="hartreedc">    -96.06428334 </i>
    <i name="XCdc">     15.74623048 </i>
    <i name="pawpsdc">     17.07221949 </i>
    <i name="pawaedc">    -17.14324176 </i>
    <i name="eentropy">     -0.00127391 </i>
    <i name="bandstr">    -35.27372987 </i>
    <i name="atom">     99.56620307 </i>
    <i name="e_fr_energy">     17.83899281 </i>
    <i name="e_wo_entrp">     17.84026672 </i>
    <i name="e_0_energy">     17.83962976 </i>
   </energy>
  </scstep>
  <scstep>
   <time name="dav">    0.68    0.68</time>
   <time name="total">    0.68    0.68</time>
   <energy>
    <i name="e_fr_energy">     -5.31389537 </i>
    <i name="e_wo_entrp">     -5.31382093 </i>
    <i name="e_0_energy">     -5.31385815 </i>
   </energy>
  </scstep>
  <scstep>
   <time name="dav">    0.81    0.81</time>
   <time name="total">    0.81    0.81</time>
   <energy>
    <i name="e_fr_energy">    -10.05951022 </i>
    <i name="e_wo_entrp">     -9.84362223 </i>
    <i name="e_0_energy">     -9.95156622 </i>
   </energy>
  </scstep>
  <scstep>
   <time name="dav">    0.72    0.72</time>
   <time name="total">    0.72    0.72</time>
   <energy>
    <i name="e_fr_energy">    -10.20202556 </i>
    <i name="e_wo_entrp">     -9.97634988 </i>
    <i name="e_0_energy">    -10.08918772 </i>
   </energy>
  </scstep>
  <scstep>
   <time name="dav">    0.62    0.62</time>
   <time name="total">    0.88    0.88</time>
   <energy>
    <i name="e_fr_energy">    -10.20252803 </i>
    <i name="e_wo_entrp">     -9.97685220 </i>
    <i name="e_0_energy">    -10.08969011 </i>
   </energy>
  </scstep>
  <scstep>
   <time name="dav">    0.62    0.62</time>
   <time name="total">    1.76    1.76</time>
   <energy>
    <i name="e_fr_energy">    -10.23782808 </i>
    <i name="e_wo_entrp">    -10.01215224 </i>
    <i name="e_0_energy">    -10.12499016 </i>
   </energy>
  </scstep>
  <scstep>
   <time name="dav">    0.56    0.56</time>
   <time name="total">    1.69    1.69</time>
   <energy>
    <i name="e_fr_energy">    -10.27111776 </i>
    <i name="e_wo_entrp">    -10.04544192 </i>
    <i name="e_0_energy">    -10.15827984 </i>
   </energy>
  </scstep>
  <scstep>
   <time name="dav">    0.75    0.76</time>
   <time name="total">    1.88    1.90</time>
   <energy>
    <i name="e_fr_energy">    -10.27216135 </i>
    <i name="e_wo_entrp">    -10.04648552 </i>
    <i name="e_0_energy">    -10.15932343 </i>
   </energy>
  </scstep>
  <scstep>
   <time name="dav">    0.63    0.63</time>
   <time name="total">    1.78    1.78</time>
   <energy>
    <i name="e_fr_energy">    -10.27235007 </i>
    <i name="e_wo_entrp">    -10.04667423 </i>
    <i name="e_0_energy">    -10.15951215 </i>
   </energy>
  </scstep>
  <scstep>
   <time name="dav">    0.63    0.63</time>
   <time name="total">    1.79    1.79</time>
   <energy>
    <i name="e_fr_energy">    -10.27245597 </i>
    <i name="e_wo_entrp">    -10.04678014 </i>
    <i name="e_0_energy">    -10.15961805 </i>
   </energy>
  </scstep>
  <scstep>
   <time name="dav">    0.57    0.57</time>
   <time name="total">    1.72    1.71</time>
   <energy>
    <i name="e_fr_energy">    -10.27260302 </i>
    <i name="e_wo_entrp">    -10.04692719 </i>
    <i name="e_0_energy">    -10.15976510 </i>
   </energy>
  </scstep>
  <scstep>
   <time name="dav">    0.43    0.43</time>
   <time name="total">    1.57    1.57</time>
   <energy>
    <i name="e_fr_energy">    -10.27263886 </i>
    <i name="e_wo_entrp">    -10.04696303 </i>
    <i name="e_0_energy">    -10.15980094 </i>
   </energy>
  </scstep>
  <scstep>
   <time name="dav">    0.57    0.57</time>
   <time name="total">    1.73    1.73</time>
   <energy>
    <i name="e_fr_energy">    -10.27270976 </i>
    <i name="e_wo_entrp">    -10.04703392 </i>
    <i name="e_0_energy">    -10.15987184 </i>
   </energy>
  </scstep>
  <scstep>
   <time name="dav">    0.43    0.43</time>
   <time name="total">    1.58    1.58</time>
   <energy>
    <i name="e_fr_energy">    -10.27273135 </i>
    <i name="e_wo_entrp">    -10.04705551 </i>
    <i name="e_0_energy">    -10.15989343 </i>
   </energy>
  </scstep>
  <scstep>
   <time name="dav">    0.57    0.57</time>
   <time name="total">    1.71    1.71</time>
   <energy>
    <i name="e_fr_energy">    -10.27278370 </i>
    <i name="e_wo_entrp">    -10.04710787 </i>
    <i name="e_0_energy">    -10.15994578 </i>
   </energy>
  </scstep>
  <scstep>
   <time name="dav">    0.43    0.44</time>
   <time name="total">    1.60    1.61</time>
   <energy>
    <i name="e_fr_energy">    -10.27280114 </i>
    <i name="e_wo_entrp">    -10.04712530 </i>
    <i name="e_0_energy">    -10.15996322 </i>
   </energy>
  </scstep>
  <scstep>
   <time name="dav">    0.49    0.49</time>
   <time name="total">    1.65    1.64</time>
   <energy>
    <i name="e_fr_energy">    -10.27280475 </i>
    <i name="e_wo_entrp">    -10.04712891 </i>
    <i name="e_0_energy">    -10.15996683 </i>
   </energy>
  </scstep>
  <scstep>
   <time name="dav">    0.46    0.46</time>
   <time name="total">    1.62    1.62</time>
   <energy>
    <i name="e_fr_energy">    -10.27280874 </i>
    <i name="e_wo_entrp">    -10.04713291 </i>
    <i name="e_0_energy">    -10.15997082 </i>
   </energy>
  </scstep>
  <scstep>
   <time name="dav">    0.44    0.44</time>
   <time name="total">    1.32    1.36</time>
   <energy>
    <i name="alphaZ">      0.04330964 </i>
    <i name="ewald">     33.89355901 </i>
    <i name="hartreedc">    -95.82308602 </i>
    <i name="XCdc">     15.59343142 </i>
    <i name="pawpsdc">     19.93814405 </i>
    <i name="pawaedc">    -19.99635115 </i>
    <i name="eentropy">     -0.22567583 </i>
    <i name="bandstr">    -63.26234375 </i>
    <i name="atom">     99.56620307 </i>
    <i name="e_fr_energy">    -10.27280956 </i>
    <i name="e_wo_entrp">    -10.04713372 </i>
    <i name="e_0_energy">    -10.15997164 </i>
   </energy>
  </scstep>
  <structure>
   <crystal>
    <varray name="basis" >
     <v>      15.00000000       0.00000000       0.00000000 </v>
     <v>       0.00000000      15.00000000       0.00000000 </v>
     <v>       0.00000000       0.00000000      16.00000000 </v>
    </varray>
    <i name="volume">   3600.00000000 </i>
    <varray name="rec_basis" >
     <v>       0.06666667      -0.00000000       0.00000000 </v>
     <v>       0.00000000       0.06666667       0.00000000 </v>
     <v>      -0.00000000      -0.00000000       0.06250000 </v>
    </varray>
   </crystal>
   <varray name="positions" >
    <v>       0.00000000       0.00000000       0.00000000 </v>
    <v>       0.00000000       0.00000000       0.12500000 </v>
    <v>       0.00000000       0.00000000       0.25000000 </v>
    <v>       0.00000000       0.00000000       0.37500000 </v>
    <v>       0.00000000       0.00000000       0.50000000 </v>
    <v>       0.00000000       0.00000000       0.62500000 </v>
    <v>       0.00000000       0.00000000       0.75000000 </v>
    <v>       0.00000000       0.00000000       0.87500000 </v>
   </varray>
  </structure>
  <varray name="forces" >
   <v>      -0.00000000       0.00000000       0.00000000 </v>
   <v>       0.00000000      -0.00000000       0.00000000 </v>
   <v>       0.00000000       0.00000000      -0.00000000 </v>
   <v>       0.00000000       0.00000000      -0.00000000 </v>
   <v>       0.00000000      -0.00000000       0.00000000 </v>
   <v>      -0.00000000       0.00000000      -0.00000000 </v>
   <v>       0.00000000      -0.00000000      -0.00000000 </v>
   <v>       0.00000000      -0.00000000       0.00000000 </v>
  </varray>
  <varray name="stress" >
   <v>      -0.37895720      -0.00000000      -0.00000000 </v>
   <v>      -0.00000000      -0.37895720      -0.00000000 </v>
   <v>      -0.00000000      -0.00000000     -10.15875705 </v>
  </varray>
  <energy>
   <i name="e_fr_energy">    -10.27280956 </i>
   <i name="e_wo_entrp">    -10.15997164 </i>
   <i name="e_0_energy">     -0.22567583 </i>
  </energy>
  <time name="totalsc">   29.57   29.63</time>
  <eigenvalues>
   <array>
    <dimension dim="1">band</dimension>
    <dimension dim="2">kpoint</dimension>
    <dimension dim="3">spin</dimension>
    <field>eigene</field>
    <field>occ</field>
    <set>
     <set comment="spin 1">
      <set comment="kpoint 1">
       <r>   -8.6661    1.0000 </r>
       <r>   -8.1518    1.0000 </r>
       <r>   -8.1518    1.0000 </r>
       <r>   -6.6614    0.5000 </r>
       <r>   -6.6614    0.5000 </r>
       <r>   -4.4944    0.0000 </r>
       <r>   -4.4944    0.0000 </r>
       <r>   -3.0685    0.0000 </r>
       <r>   -0.1288    0.0000 </r>
       <r>   -0.1288    0.0000 </r>
       <r>   -0.1169    0.0000 </r>
       <r>    0.4670    0.0000 </r>
      </set>
     </set>
     <set comment="spin 2">
      <set comment="kpoint 1">
       <r>   -8.6661    1.0000 </r>
       <r>   -8.1518    1.0000 </r>
       <r>   -8.1518    1.0000 </r>
       <r>   -6.6614    0.5000 </r>
       <r>   -6.6614    0.5000 </r>
       <r>   -4.4944    0.0000 </r>
       <r>   -4.4944    0.0000 </r>
       <r>   -3.0685    0.0000 </r>
       <r>   -0.1290    0.0000 </r>
       <r>   -0.1290    0.0000 </r>
       <r>   -0.1149    0.0000 </r>
       <r>    0.4690    0.0000 </r>
      </set>
     </set>
    </set>
   </array>
  </eigenvalues>
  <separator name="orbital magnetization" >
   <v name="MAGDIPOLOUT">      0.00000000      0.00000000      0.00000000</v>
  </separator>
  <dos>
   <i name="efermi">     -6.66136283 </i>
   <total>
    <array>
     <dimension dim="1">gridpoints</dimension>
     <dimension dim="2">spin</dimension>
     <field>energy</field>
     <field>total</field>
     <field>integrated</field>
     <set>
      <set comment="spin 1">
       <r>   -10.6661     0.0000     0.0000 </r>
       <r>   -10.6223     0.0000     0.0000 </r>
       <r>   -10.5785     0.0000     0.0000 </r>
       <r>   -10.5348     0.0000     0.0000 </r>
       <r>   -10.4910     0.0000     0.0000 </r>
       <r>   -10.4472     0.0000     0.0000 </r>
       <r>   -10.4034     0.0000     0.0000 </r>
       <r>   -10.3596     0.0000     0.0000 </r>
       <r>   -10.3158     0.0000     0.0000 </r>
       <r>   -10.2721     0.0000     0.0000 </r>
       <r>   -10.2283     0.0000     0.0000 </r>
       <r>   -10.1845     0.0000     0.0000 </r>
       <r>   -10.1407     0.0000     0.0000 </r>
       <r>   -10.0969     0.0000     0.0000 </r>
       <r>   -10.0531     0.0000     0.0000 </r>
       <r>   -10.0094     0.0000     0.0000 </r>
       <r>    -9.9656     0.0000     0.0000 </r>
       <r>    -9.9218     0.0000     0.0000 </r>
       <r>    -9.8780     0.0000     0.0000 </r>
       <r>    -9.8342     0.0000     0.0000 </r>
       <r>    -9.7904     0.0000     0.0000 </r>
       <r>    -9.7467     0.0000     0.0000 </r>
       <r>    -9.7029     0.0000     0.0000 </r>
       <r>    -9.6591     0.0000     0.0000 </r>
       <r>    -9.6153     0.0000     0.0000 </r>
       <r>    -9.5715     0.0000     0.0000 </r>
       <r>    -9.5277     0.0000     0.0000 </r>
       <r>    -9.4839     0.0000     0.0000 </r>
       <r>    -9.4402     0.0000     0.0000 </r>
       <r>    -9.3964     0.0000     0.0000 </r>
       <r>    -9.3526     0.0000     0.0000 </r>
       <r>    -9.3088     0.0001     0.0000 </r>
       <r>    -9.2650     0.0004     0.0000 </r>
       <r>    -9.2212     0.0015     0.0001 </r>
       <r>    -9.1775     0.0049     0.0003 </r>
       <r>    -9.1337     0.0148     0.0009 </r>
       <r>    -9.0899     0.0408     0.0027 </r>
       <r>    -9.0461     0.1023     0.0072 </r>
       <r>    -9.0023     0.2335     0.0174 </r>
       <r>    -8.9585     0.4847     0.0387 </r>
       <r>    -8.9148     0.9148     0.0787 </r>
       <r>    -8.8710     1.5698     0.1474 </r>
       <r>    -8.8272     2.4496     0.2547 </r>
       <r>    -8.7834     3.4758     0.4069 </r>
       <r>    -8.7396     4.4850     0.6032 </r>
       <r>    -8.6958     5.2640     0.8337 </r>
       <r>    -8.6521     5.6239     1.0800 </r>
       <r>    -8.6083     5.4808     1.3199 </r>
       <r>    -8.5645     4.9038     1.5346 </r>
       <r>    -8.5207     4.1040     1.7143 </r>
       <r>    -8.4769     3.3745     1.8621 </r>
       <r>    -8.4331     3.0111     1.9939 </r>
       <r>    -8.3894     3.2404     2.1358 </r>
       <r>    -8.3456     4.1632     2.3181 </r>
       <r>    -8.3018     5.7106     2.5681 </r>
       <r>    -8.2580     7.6229     2.9019 </r>
       <r>    -8.2142     9.4816     3.3170 </r>
       <r>    -8.1704    10.8128     3.7904 </r>
       <r>    -8.1267    11.2432     4.2827 </r>
       <r>    -8.0829    10.6398     4.7485 </r>
       <r>    -8.0391     9.1581     5.1495 </r>
       <r>    -7.9953     7.1685     5.4634 </r>
       <r>    -7.9515     5.1023     5.6868 </r>
       <r>    -7.9077     3.3022     5.8314 </r>
       <r>    -7.8639     1.9433     5.9165 </r>
       <r>    -7.8202     1.0399     5.9620 </r>
       <r>    -7.7764     0.5060     5.9841 </r>
       <r>    -7.7326     0.2239     5.9939 </r>
       <r>    -7.6888     0.0901     5.9979 </r>
       <r>    -7.6450     0.0329     5.9993 </r>
       <r>    -7.6012     0.0110     5.9998 </r>
       <r>    -7.5575     0.0033     5.9999 </r>
       <r>    -7.5137     0.0009     6.0000 </r>
       <r>    -7.4699     0.0002     6.0000 </r>
       <r>    -7.4261     0.0001     6.0000 </r>
       <r>    -7.3823     0.0000     6.0000 </r>
       <r>    -7.3385     0.0001     6.0000 </r>
       <r>    -7.2948     0.0003     6.0000 </r>
       <r>    -7.2510     0.0011     6.0001 </r>
       <r>    -7.2072     0.0038     6.0002 </r>
       <r>    -7.1634     0.0124     6.0008 </r>
       <r>    -7.1196     0.0369     6.0024 </r>
       <r>    -7.0758     0.0999     6.0068 </r>
       <r>    -7.0321     0.2458     6.0175 </r>
       <r>    -6.9883     0.5498     6.0416 </r>
       <r>    -6.9445     1.1184     6.0906 </r>
       <r>    -6.9007     2.0685     6.1811 </r>
       <r>    -6.8569     3.4786     6.3334 </r>
       <r>    -6.8131     5.3194     6.5663 </r>
       <r>    -6.7694     7.3963     6.8902 </r>
       <r>    -6.7256     9.3514     7.2996 </r>
       <r>    -6.6818    10.7507     7.7703 </r>
       <r>    -6.6380    11.2383     8.2624 </r>
       <r>    -6.5942    10.6824     8.7301 </r>
       <r>    -6.5504     9.2330     9.1343 </r>
       <r>    -6.5067     7.2563     9.4521 </r>
       <r>    -6.4629     5.1855     9.6791 </r>
       <r>    -6.4191     3.3696     9.8266 </r>
       <r>    -6.3753     1.9909     9.9138 </r>
       <r>    -6.3315     1.0696     9.9606 </r>
       <r>    -6.2877     0.5225     9.9835 </r>
       <r>    -6.2440     0.2321     9.9937 </r>
       <r>    -6.2002     0.0937     9.9978 </r>
       <r>    -6.1564     0.0344     9.9993 </r>
       <r>    -6.1126     0.0115     9.9998 </r>
       <r>    -6.0688     0.0035     9.9999 </r>
       <r>    -6.0250     0.0010    10.0000 </r>
       <r>    -5.9812     0.0002    10.0000 </r>
       <r>    -5.9375     0.0001    10.0000 </r>
       <r>    -5.8937     0.0000    10.0000 </r>
       <r>    -5.8499     0.0000    10.0000 </r>
       <r>    -5.8061     0.0000    10.0000 </r>
       <r>    -5.7623     0.0000    10.0000 </r>
       <r>    -5.7185     0.0000    10.0000 </r>
       <r>    -5.6748     0.0000    10.0000 </r>
       <r>    -5.6310     0.0000    10.0000 </r>
       <r>    -5.5872     0.0000    10.0000 </r>
       <r>    -5.5434     0.0000    10.0000 </r>
       <r>    -5.4996     0.0000    10.0000 </r>
       <r>    -5.4558     0.0000    10.0000 </r>
       <r>    -5.4121     0.0000    10.0000 </r>
       <r>    -5.3683     0.0000    10.0000 </r>
       <r>    -5.3245     0.0000    10.0000 </r>
       <r>    -5.2807     0.0000    10.0000 </r>
       <r>    -5.2369     0.0000    10.0000 </r>
       <r>    -5.1931     0.0000    10.0000 </r>
       <r>    -5.1494     0.0001    10.0000 </r>
       <r>    -5.1056     0.0005    10.0000 </r>
       <r>    -5.0618     0.0020    10.0001 </r>
       <r>    -5.0180     0.0070    10.0004 </r>
       <r>    -4.9742     0.0219    10.0014 </r>
       <r>    -4.9304     0.0620    10.0041 </r>
       <r>    -4.8867     0.1598    10.0111 </r>
       <r>    -4.8429     0.3746    10.0275 </r>
       <r>    -4.7991     0.7983    10.0624 </r>
       <r>    -4.7553     1.5472    10.1302 </r>
       <r>    -4.7115     2.7265    10.2496 </r>
       <r>    -4.6677     4.3687    10.4408 </r>
       <r>    -4.6240     6.3652    10.7195 </r>
       <r>    -4.5802     8.4327    11.0888 </r>
       <r>    -4.5364    10.1585    11.5335 </r>
       <r>    -4.4926    11.1273    12.0207 </r>
       <r>    -4.4488    11.0830    12.5060 </r>
       <r>    -4.4050    10.0376    12.9455 </r>
       <r>    -4.3612     8.2662    13.3074 </r>
       <r>    -4.3175     6.1899    13.5784 </r>
       <r>    -4.2737     4.2147    13.7629 </r>
       <r>    -4.2299     2.6094    13.8772 </r>
       <r>    -4.1861     1.4690    13.9415 </r>
       <r>    -4.1423     0.7520    13.9744 </r>
       <r>    -4.0985     0.3500    13.9898 </r>
       <r>    -4.0548     0.1481    13.9962 </r>
       <r>    -4.0110     0.0570    13.9987 </r>
       <r>    -3.9672     0.0199    13.9996 </r>
       <r>    -3.9234     0.0063    13.9999 </r>
       <r>    -3.8796     0.0018    14.0000 </r>
       <r>    -3.8358     0.0005    14.0000 </r>
       <r>    -3.7921     0.0001    14.0000 </r>
       <r>    -3.7483     0.0001    14.0000 </r>
       <r>    -3.7045     0.0001    14.0000 </r>
       <r>    -3.6607     0.0005    14.0000 </r>
       <r>    -3.6169     0.0018    14.0001 </r>
       <r>    -3.5731     0.0058    14.0004 </r>
       <r>    -3.5294     0.0174    14.0011 </r>
       <r>    -3.4856     0.0473    14.0032 </r>
       <r>    -3.4418     0.1169    14.0083 </r>
       <r>    -3.3980     0.2630    14.0198 </r>
       <r>    -3.3542     0.5379    14.0434 </r>
       <r>    -3.3104     1.0005    14.0872 </r>
       <r>    -3.2667     1.6918    14.1613 </r>
       <r>    -3.2229     2.6015    14.2752 </r>
       <r>    -3.1791     3.6373    14.4344 </r>
       <r>    -3.1353     4.6243    14.6369 </r>
       <r>    -3.0915     5.3458    14.8709 </r>
       <r>    -3.0477     5.6193    15.1170 </r>
       <r>    -3.0040     5.3710    15.3521 </r>
       <r>    -2.9602     4.6680    15.5565 </r>
       <r>    -2.9164     3.6890    15.7180 </r>
       <r>    -2.8726     2.6509    15.8341 </r>
       <r>    -2.8288     1.7321    15.9099 </r>
       <r>    -2.7850     1.0291    15.9550 </r>
       <r>    -2.7413     0.5560    15.9793 </r>
       <r>    -2.6975     0.2731    15.9913 </r>
       <r>    -2.6537     0.1220    15.9966 </r>
       <r>    -2.6099     0.0495    15.9988 </r>
       <r>    -2.5661     0.0183    15.9996 </r>
       <r>    -2.5223     0.0061    15.9999 </r>
       <r>    -2.4785     0.0019    16.0000 </r>
       <r>    -2.4348     0.0005    16.0000 </r>
       <r>    -2.3910     0.0001    16.0000 </r>
       <r>    -2.3472     0.0000    16.0000 </r>
       <r>    -2.3034     0.0000    16.0000 </r>
       <r>    -2.2596     0.0000    16.0000 </r>
       <r>    -2.2158     0.0000    16.0000 </r>
       <r>    -2.1721     0.0000    16.0000 </r>
       <r>    -2.1283     0.0000    16.0000 </r>
       <r>    -2.0845     0.0000    16.0000 </r>
       <r>    -2.0407     0.0000    16.0000 </r>
       <r>    -1.9969     0.0000    16.0000 </r>
       <r>    -1.9531     0.0000    16.0000 </r>
       <r>    -1.9094     0.0000    16.0000 </r>
       <r>    -1.8656     0.0000    16.0000 </r>
       <r>    -1.8218     0.0000    16.0000 </r>
       <r>    -1.7780     0.0000    16.0000 </r>
       <r>    -1.7342     0.0000    16.0000 </r>
       <r>    -1.6904     0.0000    16.0000 </r>
       <r>    -1.6467     0.0000    16.0000 </r>
       <r>    -1.6029     0.0000    16.0000 </r>
       <r>    -1.5591     0.0000    16.0000 </r>
       <r>    -1.5153     0.0000    16.0000 </r>
       <r>    -1.4715     0.0000    16.0000 </r>
       <r>    -1.4277     0.0000    16.0000 </r>
       <r>    -1.3840     0.0000    16.0000 </r>
       <r>    -1.3402     0.0000    16.0000 </r>
       <r>    -1.2964     0.0000    16.0000 </r>
       <r>    -1.2526     0.0000    16.0000 </r>
       <r>    -1.2088     0.0000    16.0000 </r>
       <r>    -1.1650     0.0000    16.0000 </r>
       <r>    -1.1213     0.0000    16.0000 </r>
       <r>    -1.0775     0.0000    16.0000 </r>
       <r>    -1.0337     0.0000    16.0000 </r>
       <r>    -0.9899     0.0000    16.0000 </r>
       <r>    -0.9461     0.0000    16.0000 </r>
       <r>    -0.9023     0.0000    16.0000 </r>
       <r>    -0.8585     0.0000    16.0000 </r>
       <r>    -0.8148     0.0001    16.0000 </r>
       <r>    -0.7710     0.0003    16.0000 </r>
       <r>    -0.7272     0.0011    16.0001 </r>
       <r>    -0.6834     0.0040    16.0002 </r>
       <r>    -0.6396     0.0135    16.0008 </r>
       <r>    -0.5958     0.0411    16.0026 </r>
       <r>    -0.5521     0.1141    16.0076 </r>
       <r>    -0.5083     0.2882    16.0202 </r>
       <r>    -0.4645     0.6619    16.0492 </r>
       <r>    -0.4207     1.3826    16.1098 </r>
       <r>    -0.3769     2.6261    16.2247 </r>
       <r>    -0.3331     4.5364    16.4234 </r>
       <r>    -0.2894     7.1262    16.7354 </r>
       <r>    -0.2456    10.1806    17.1811 </r>
       <r>    -0.2018    13.2267    17.7602 </r>
       <r>    -0.1580    15.6279    18.4445 </r>
       <r>    -0.1142    16.7930    19.1797 </r>
       <r>    -0.0704    16.4118    19.8983 </r>
       <r>    -0.0267    14.5907    20.5371 </r>
       <r>     0.0171    11.8085    21.0542 </r>
       <r>     0.0609     8.7225    21.4361 </r>
       <r>     0.1047     5.9349    21.6959 </r>
       <r>     0.1485     3.8372    21.8639 </r>
       <r>     0.1923     2.5795    21.9769 </r>
       <r>     0.2360     2.1290    22.0701 </r>
       <r>     0.2798     2.3475    22.1729 </r>
       <r>     0.3236     3.0394    22.3059 </r>
       <r>     0.3674     3.9664    22.4796 </r>
       <r>     0.4112     4.8615    22.6925 </r>
       <r>     0.4550     5.4686    22.9319 </r>
       <r>     0.4987     5.6081    23.1774 </r>
       <r>     0.5425     5.2334    23.4066 </r>
       <r>     0.5863     4.4415    23.6010 </r>
       <r>     0.6301     3.4278    23.7511 </r>
       <r>     0.6739     2.4055    23.8564 </r>
       <r>     0.7177     1.5349    23.9237 </r>
       <r>     0.7614     0.8906    23.9626 </r>
       <r>     0.8052     0.4699    23.9832 </r>
       <r>     0.8490     0.2254    23.9931 </r>
       <r>     0.8928     0.0983    23.9974 </r>
       <r>     0.9366     0.0390    23.9991 </r>
       <r>     0.9804     0.0141    23.9997 </r>
       <r>     1.0242     0.0046    23.9999 </r>
       <r>     1.0679     0.0014    24.0000 </r>
       <r>     1.1117     0.0004    24.0000 </r>
       <r>     1.1555     0.0001    24.0000 </r>
       <r>     1.1993     0.0000    24.0000 </r>
       <r>     1.2431     0.0000    24.0000 </r>
       <r>     1.2869     0.0000    24.0000 </r>
       <r>     1.3306     0.0000    24.0000 </r>
       <r>     1.3744     0.0000    24.0000 </r>
       <r>     1.4182     0.0000    24.0000 </r>
       <r>     1.4620     0.0000    24.0000 </r>
       <r>     1.5058     0.0000    24.0000 </r>
       <r>     1.5496     0.0000    24.0000 </r>
       <r>     1.5933     0.0000    24.0000 </r>
       <r>     1.6371     0.0000    24.0000 </r>
       <r>     1.6809     0.0000    24.0000 </r>
       <r>     1.7247     0.0000    24.0000 </r>
       <r>     1.7685     0.0000    24.0000 </r>
       <r>     1.8123     0.0000    24.0000 </r>
       <r>     1.8560     0.0000    24.0000 </r>
       <r>     1.8998     0.0000    24.0000 </r>
       <r>     1.9436     0.0000    24.0000 </r>
       <r>     1.9874     0.0000    24.0000 </r>
       <r>     2.0312     0.0000    24.0000 </r>
       <r>     2.0750     0.0000    24.0000 </r>
       <r>     2.1187     0.0000    24.0000 </r>
       <r>     2.1625     0.0000    24.0000 </r>
       <r>     2.2063     0.0000    24.0000 </r>
       <r>     2.2501     0.0000    24.0000 </r>
       <r>     2.2939     0.0000    24.0000 </r>
       <r>     2.3377     0.0000    24.0000 </r>
       <r>     2.3814     0.0000    24.0000 </r>
       <r>     2.4252     0.0000    24.0000 </r>
       <r>     2.4690     0.0000    24.0000 </r>
      </set>
      <set comment="spin 2">
       <r>   -10.6661     0.0000     0.0000 </r>
       <r>   -10.6223     0.0000     0.0000 </r>
       <r>   -10.5785     0.0000     0.0000 </r>
       <r>   -10.5348     0.0000     0.0000 </r>
       <r>   -10.4910     0.0000     0.0000 </r>
       <r>   -10.4472     0.0000     0.0000 </r>
       <r>   -10.4034     0.0000     0.0000 </r>
       <r>   -10.3596     0.0000     0.0000 </r>
       <r>   -10.3158     0.0000     0.0000 </r>
       <r>   -10.2721     0.0000     0.0000 </r>
       <r>   -10.2283     0.0000     0.0000 </r>
       <r>   -10.1845     0.0000     0.0000 </r>
       <r>   -10.1407     0.0000     0.0000 </r>
       <r>   -10.0969     0.0000     0.0000 </r>
       <r>   -10.0531     0.0000     0.0000 </r>
       <r>   -10.0094     0.0000     0.0000 </r>
       <r>    -9.9656     0.0000     0.0000 </r>
       <r>    -9.9218     0.0000     0.0000 </r>
       <r>    -9.8780     0.0000     0.0000 </r>
       <r>    -9.8342     0.0000     0.0000 </r>
       <r>    -9.7904     0.0000     0.0000 </r>
       <r>    -9.7467     0.0000     0.0000 </r>
       <r>    -9.7029     0.0000     0.0000 </r>
       <r>    -9.6591     0.0000     0.0000 </r>
       <r>    -9.6153     0.0000     0.0000 </r>
       <r>    -9.5715     0.0000     0.0000 </r>
       <r>    -9.5277     0.0000     0.0000 </r>
       <r>    -9.4839     0.0000     0.0000 </r>
       <r>    -9.4402     0.0000     0.0000 </r>
       <r>    -9.3964     0.0000     0.0000 </r>
       <r>    -9.3526     0.0000     0.0000 </r>
       <r>    -9.3088     0.0001     0.0000 </r>
       <r>    -9.2650     0.0004     0.0000 </r>
       <r>    -9.2212     0.0015     0.0001 </r>
       <r>    -9.1775     0.0049     0.0003 </r>
       <r>    -9.1337     0.0148     0.0009 </r>
       <r>    -9.0899     0.0408     0.0027 </r>
       <r>    -9.0461     0.1023     0.0072 </r>
       <r>    -9.0023     0.2335     0.0174 </r>
       <r>    -8.9585     0.4847     0.0387 </r>
       <r>    -8.9148     0.9148     0.0787 </r>
       <r>    -8.8710     1.5698     0.1474 </r>
       <r>    -8.8272     2.4496     0.2547 </r>
       <r>    -8.7834     3.4758     0.4069 </r>
       <r>    -8.7396     4.4850     0.6032 </r>
       <r>    -8.6958     5.2640     0.8337 </r>
       <r>    -8.6521     5.6239     1.0800 </r>
       <r>    -8.6083     5.4808     1.3199 </r>
       <r>    -8.5645     4.9038     1.5346 </r>
       <r>    -8.5207     4.1040     1.7143 </r>
       <r>    -8.4769     3.3745     1.8621 </r>
       <r>    -8.4331     3.0111     1.9939 </r>
       <r>    -8.3894     3.2404     2.1358 </r>
       <r>    -8.3456     4.1632     2.3181 </r>
       <r>    -8.3018     5.7106     2.5681 </r>
       <r>    -8.2580     7.6229     2.9019 </r>
       <r>    -8.2142     9.4816     3.3170 </r>
       <r>    -8.1704    10.8128     3.7904 </r>
       <r>    -8.1267    11.2432     4.2827 </r>
       <r>    -8.0829    10.6398     4.7485 </r>
       <r>    -8.0391     9.1581     5.1495 </r>
       <r>    -7.9953     7.1685     5.4634 </r>
       <r>    -7.9515     5.1023     5.6868 </r>
       <r>    -7.9077     3.3022     5.8314 </r>
       <r>    -7.8639     1.9433     5.9165 </r>
       <r>    -7.8202     1.0399     5.9620 </r>
       <r>    -7.7764     0.5060     5.9841 </r>
       <r>    -7.7326     0.2239     5.9939 </r>
       <r>    -7.6888     0.0901     5.9979 </r>
       <r>    -7.6450     0.0329     5.9993 </r>
       <r>    -7.6012     0.0110     5.9998 </r>
       <r>    -7.5575     0.0033     5.9999 </r>
       <r>    -7.5137     0.0009     6.0000 </r>
       <r>    -7.4699     0.0002     6.0000 </r>
       <r>    -7.4261     0.0001     6.0000 </r>
       <r>    -7.3823     0.0000     6.0000 </r>
       <r>    -7.3385     0.0001     6.0000 </r>
       <r>    -7.2948     0.0003     6.0000 </r>
       <r>    -7.2510     0.0011     6.0001 </r>
       <r>    -7.2072     0.0038     6.0002 </r>
       <r>    -7.1634     0.0124     6.0008 </r>
       <r>    -7.1196     0.0369     6.0024 </r>
       <r>    -7.0758     0.0999     6.0068 </r>
       <r>    -7.0321     0.2458     6.0175 </r>
       <r>    -6.9883     0.5498     6.0416 </r>
       <r>    -6.9445     1.1184     6.0906 </r>
       <r>    -6.9007     2.0685     6.1811 </r>
       <r>    -6.8569     3.4786     6.3334 </r>
       <r>    -6.8131     5.3194     6.5663 </r>
       <r>    -6.7694     7.3963     6.8902 </r>
       <r>    -6.7256     9.3514     7.2996 </r>
       <r>    -6.6818    10.7507     7.7703 </r>
       <r>    -6.6380    11.2383     8.2624 </r>
       <r>    -6.5942    10.6824     8.7301 </r>
       <r>    -6.5504     9.2330     9.1343 </r>
       <r>    -6.5067     7.2563     9.4521 </r>
       <r>    -6.4629     5.1855     9.6791 </r>
       <r>    -6.4191     3.3696     9.8266 </r>
       <r>    -6.3753     1.9909     9.9138 </r>
       <r>    -6.3315     1.0696     9.9606 </r>
       <r>    -6.2877     0.5225     9.9835 </r>
       <r>    -6.2440     0.2321     9.9937 </r>
       <r>    -6.2002     0.0937     9.9978 </r>
       <r>    -6.1564     0.0344     9.9993 </r>
       <r>    -6.1126     0.0115     9.9998 </r>
       <r>    -6.0688     0.0035     9.9999 </r>
       <r>    -6.0250     0.0010    10.0000 </r>
       <r>    -5.9812     0.0002    10.0000 </r>
       <r>    -5.9375     0.0001    10.0000 </r>
       <r>    -5.8937     0.0000    10.0000 </r>
       <r>    -5.8499     0.0000    10.0000 </r>
       <r>    -5.8061     0.0000    10.0000 </r>
       <r>    -5.7623     0.0000    10.0000 </r>
       <r>    -5.7185     0.0000    10.0000 </r>
       <r>    -5.6748     0.0000    10.0000 </r>
       <r>    -5.6310     0.0000    10.0000 </r>
       <r>    -5.5872     0.0000    10.0000 </r>
       <r>    -5.5434     0.0000    10.0000 </r>
       <r>    -5.4996     0.0000    10.0000 </r>
       <r>    -5.4558     0.0000    10.0000 </r>
       <r>    -5.4121     0.0000    10.0000 </r>
       <r>    -5.3683     0.0000    10.0000 </r>
       <r>    -5.3245     0.0000    10.0000 </r>
       <r>    -5.2807     0.0000    10.0000 </r>
       <r>    -5.2369     0.0000    10.0000 </r>
       <r>    -5.1931     0.0000    10.0000 </r>
       <r>    -5.1494     0.0001    10.0000 </r>
       <r>    -5.1056     0.0005    10.0000 </r>
       <r>    -5.0618     0.0020    10.0001 </r>
       <r>    -5.0180     0.0070    10.0004 </r>
       <r>    -4.9742     0.0219    10.0014 </r>
       <r>    -4.9304     0.0620    10.0041 </r>
       <r>    -4.8867     0.1598    10.0111 </r>
       <r>    -4.8429     0.3746    10.0275 </r>
       <r>    -4.7991     0.7983    10.0624 </r>
       <r>    -4.7553     1.5472    10.1302 </r>
       <r>    -4.7115     2.7265    10.2496 </r>
       <r>    -4.6677     4.3687    10.4408 </r>
       <r>    -4.6240     6.3652    10.7195 </r>
       <r>    -4.5802     8.4327    11.0888 </r>
       <r>    -4.5364    10.1585    11.5335 </r>
       <r>    -4.4926    11.1273    12.0207 </r>
       <r>    -4.4488    11.0830    12.5060 </r>
       <r>    -4.4050    10.0376    12.9455 </r>
       <r>    -4.3612     8.2662    13.3074 </r>
       <r>    -4.3175     6.1899    13.5784 </r>
       <r>    -4.2737     4.2147    13.7629 </r>
       <r>    -4.2299     2.6094    13.8772 </r>
       <r>    -4.1861     1.4690    13.9415 </r>
       <r>    -4.1423     0.7520    13.9744 </r>
       <r>    -4.0985     0.3500    13.9898 </r>
       <r>    -4.0548     0.1481    13.9962 </r>
       <r>    -4.0110     0.0570    13.9987 </r>
       <r>    -3.9672     0.0199    13.9996 </r>
       <r>    -3.9234     0.0063    13.9999 </r>
       <r>    -3.8796     0.0018    14.0000 </r>
       <r>    -3.8358     0.0005    14.0000 </r>
       <r>    -3.7921     0.0001    14.0000 </r>
       <r>    -3.7483     0.0001    14.0000 </r>
       <r>    -3.7045     0.0001    14.0000 </r>
       <r>    -3.6607     0.0005    14.0000 </r>
       <r>    -3.6169     0.0018    14.0001 </r>
       <r>    -3.5731     0.0058    14.0004 </r>
       <r>    -3.5294     0.0174    14.0011 </r>
       <r>    -3.4856     0.0473    14.0032 </r>
       <r>    -3.4418     0.1169    14.0083 </r>
       <r>    -3.3980     0.2630    14.0198 </r>
       <r>    -3.3542     0.5380    14.0434 </r>
       <r>    -3.3104     1.0005    14.0872 </r>
       <r>    -3.2667     1.6919    14.1613 </r>
       <r>    -3.2229     2.6015    14.2752 </r>
       <r>    -3.1791     3.6373    14.4344 </r>
       <r>    -3.1353     4.6243    14.6369 </r>
       <r>    -3.0915     5.3458    14.8709 </r>
       <r>    -3.0477     5.6193    15.1170 </r>
       <r>    -3.0040     5.3710    15.3521 </r>
       <r>    -2.9602     4.6680    15.5565 </r>
       <r>    -2.9164     3.6890    15.7180 </r>
       <r>    -2.8726     2.6509    15.8341 </r>
       <r>    -2.8288     1.7321    15.9099 </r>
       <r>    -2.7850     1.0291    15.9550 </r>
       <r>    -2.7413     0.5560    15.9793 </r>
       <r>    -2.6975     0.2731    15.9913 </r>
       <r>    -2.6537     0.1220    15.9966 </r>
       <r>    -2.6099     0.0495    15.9988 </r>
       <r>    -2.5661     0.0183    15.9996 </r>
       <r>    -2.5223     0.0061    15.9999 </r>
       <r>    -2.4785     0.0019    16.0000 </r>
       <r>    -2.4348     0.0005    16.0000 </r>
       <r>    -2.3910     0.0001    16.0000 </r>
       <r>    -2.3472     0.0000    16.0000 </r>
       <r>    -2.3034     0.0000    16.0000 </r>
       <r>    -2.2596     0.0000    16.0000 </r>
       <r>    -2.2158     0.0000    16.0000 </r>
       <r>    -2.1721     0.0000    16.0000 </r>
       <r>    -2.1283     0.0000    16.0000 </r>
       <r>    -2.0845     0.0000    16.0000 </r>
       <r>    -2.0407     0.0000    16.0000 </r>
       <r>    -1.9969     0.0000    16.0000 </r>
       <r>    -1.9531     0.0000    16.0000 </r>
       <r>    -1.9094     0.0000    16.0000 </r>
       <r>    -1.8656     0.0000    16.0000 </r>
       <r>    -1.8218     0.0000    16.0000 </r>
       <r>    -1.7780     0.0000    16.0000 </r>
       <r>    -1.7342     0.0000    16.0000 </r>
       <r>    -1.6904     0.0000    16.0000 </r>
       <r>    -1.6467     0.0000    16.0000 </r>
       <r>    -1.6029     0.0000    16.0000 </r>
       <r>    -1.5591     0.0000    16.0000 </r>
       <r>    -1.5153     0.0000    16.0000 </r>
       <r>    -1.4715     0.0000    16.0000 </r>
       <r>    -1.4277     0.0000    16.0000 </r>
       <r>    -1.3840     0.0000    16.0000 </r>
       <r>    -1.3402     0.0000    16.0000 </r>
       <r>    -1.2964     0.0000    16.0000 </r>
       <r>    -1.2526     0.0000    16.0000 </r>
       <r>    -1.2088     0.0000    16.0000 </r>
       <r>    -1.1650     0.0000    16.0000 </r>
       <r>    -1.1213     0.0000    16.0000 </r>
       <r>    -1.0775     0.0000    16.0000 </r>
       <r>    -1.0337     0.0000    16.0000 </r>
       <r>    -0.9899     0.0000    16.0000 </r>
       <r>    -0.9461     0.0000    16.0000 </r>
       <r>    -0.9023     0.0000    16.0000 </r>
       <r>    -0.8585     0.0000    16.0000 </r>
       <r>    -0.8148     0.0001    16.0000 </r>
       <r>    -0.7710     0.0003    16.0000 </r>
       <r>    -0.7272     0.0011    16.0001 </r>
       <r>    -0.6834     0.0040    16.0002 </r>
       <r>    -0.6396     0.0133    16.0008 </r>
       <r>    -0.5958     0.0406    16.0026 </r>
       <r>    -0.5521     0.1129    16.0075 </r>
       <r>    -0.5083     0.2854    16.0200 </r>
       <r>    -0.4645     0.6561    16.0488 </r>
       <r>    -0.4207     1.3715    16.1088 </r>
       <r>    -0.3769     2.6074    16.2230 </r>
       <r>    -0.3331     4.5083    16.4204 </r>
       <r>    -0.2894     7.0892    16.7308 </r>
       <r>    -0.2456    10.1384    17.1747 </r>
       <r>    -0.2018    13.1866    17.7520 </r>
       <r>    -0.1580    15.5988    18.4350 </r>
       <r>    -0.1142    16.7822    19.1698 </r>
       <r>    -0.0704    16.4223    19.8888 </r>
       <r>    -0.0267    14.6193    20.5289 </r>
       <r>     0.0171    11.8475    21.0476 </r>
       <r>     0.0609     8.7622    21.4313 </r>
       <r>     0.1047     5.9666    21.6925 </r>
       <r>     0.1485     3.8548    21.8613 </r>
       <r>     0.1923     2.5800    21.9742 </r>
       <r>     0.2360     2.1117    22.0667 </r>
       <r>     0.2798     2.3144    22.1680 </r>
       <r>     0.3236     2.9958    22.2992 </r>
       <r>     0.3674     3.9208    22.4709 </r>
       <r>     0.4112     4.8245    22.6821 </r>
       <r>     0.4550     5.4500    22.9207 </r>
       <r>     0.4987     5.6131    23.1665 </r>
       <r>     0.5425     5.2606    23.3968 </r>
       <r>     0.5863     4.4840    23.5931 </r>
       <r>     0.6301     3.4755    23.7453 </r>
       <r>     0.6739     2.4495    23.8526 </r>
       <r>     0.7177     1.5698    23.9213 </r>
       <r>     0.7614     0.9148    23.9613 </r>
       <r>     0.8052     0.4847    23.9826 </r>
       <r>     0.8490     0.2335    23.9928 </r>
       <r>     0.8928     0.1023    23.9973 </r>
       <r>     0.9366     0.0408    23.9991 </r>
       <r>     0.9804     0.0148    23.9997 </r>
       <r>     1.0242     0.0049    23.9999 </r>
       <r>     1.0679     0.0015    24.0000 </r>
       <r>     1.1117     0.0004    24.0000 </r>
       <r>     1.1555     0.0001    24.0000 </r>
       <r>     1.1993     0.0000    24.0000 </r>
       <r>     1.2431     0.0000    24.0000 </r>
       <r>     1.2869     0.0000    24.0000 </r>
       <r>     1.3306     0.0000    24.0000 </r>
       <r>     1.3744     0.0000    24.0000 </r>
       <r>     1.4182     0.0000    24.0000 </r>
       <r>     1.4620     0.0000    24.0000 </r>
       <r>     1.5058     0.0000    24.0000 </r>
       <r>     1.5496     0.0000    24.0000 </r>
       <r>     1.5933     0.0000    24.0000 </r>
       <r>     1.6371     0.0000    24.0000 </r>
       <r>     1.6809     0.0000    24.0000 </r>
       <r>     1.7247     0.0000    24.0000 </r>
       <r>     1.7685     0.0000    24.0000 </r>
       <r>     1.8123     0.0000    24.0000 </r>
       <r>     1.8560     0.0000    24.0000 </r>
       <r>     1.8998     0.0000    24.0000 </r>
       <r>     1.9436     0.0000    24.0000 </r>
       <r>     1.9874     0.0000    24.0000 </r>
       <r>     2.0312     0.0000    24.0000 </r>
       <r>     2.0750     0.0000    24.0000 </r>
       <r>     2.1187     0.0000    24.0000 </r>
       <r>     2.1625     0.0000    24.0000 </r>
       <r>     2.2063     0.0000    24.0000 </r>
       <r>     2.2501     0.0000    24.0000 </r>
       <r>     2.2939     0.0000    24.0000 </r>
       <r>     2.3377     0.0000    24.0000 </r>
       <r>     2.3814     0.0000    24.0000 </r>
       <r>     2.4252     0.0000    24.0000 </r>
       <r>     2.4690     0.0000    24.0000 </r>
      </set>
     </set>
    </array>
   </total>
  </dos>
 </calculation>
 <structure name="finalpos" >
  <crystal>
   <varray name="basis" >
    <v>      15.00000000       0.00000000       0.00000000 </v>
    <v>       0.00000000      15.00000000       0.00000000 </v>
    <v>       0.00000000       0.00000000      16.00000000 </v>
   </varray>
   <i name="volume">   3600.00000000 </i>
   <varray name="rec_basis" >
    <v>       0.06666667      -0.00000000       0.00000000 </v>
    <v>       0.00000000       0.06666667       0.00000000 </v>
    <v>      -0.00000000      -0.00000000       0.06250000 </v>
   </varray>
  </crystal>
  <varray name="positions" >
   <v>       0.00000000       0.00000000       0.00000000 </v>
   <v>       0.00000000       0.00000000       0.12500000 </v>
   <v>       0.00000000       0.00000000       0.25000000 </v>
   <v>       0.00000000       0.00000000       0.37500000 </v>
   <v>       0.00000000       0.00000000       0.50000000 </v>
   <v>       0.00000000       0.00000000       0.62500000 </v>
   <v>       0.00000000       0.00000000       0.75000000 </v>
   <v>       0.00000000       0.00000000       0.87500000 </v>
  </varray>
 </structure>
</modeling>
