   8   8   0   0
  0.5850000E+03  0.1500000E-08  0.1500000E-08  0.2080000E-08  0.5000000E-15
  1.000000000000000E-004
  CAR 
 unknown system                          
      2.22047998     -9.64692338  301     -6.69844568      1.00000000
     -9.647  0.0000E+00  0.0000E+00  0.0000E+00  0.0000E+00
     -9.607  0.0000E+00  0.0000E+00  0.0000E+00  0.0000E+00
     -9.568  0.0000E+00  0.0000E+00  0.0000E+00  0.0000E+00
     -9.528  0.0000E+00  0.0000E+00  0.0000E+00  0.0000E+00
     -9.489  0.0000E+00  0.0000E+00  0.0000E+00  0.0000E+00
     -9.449  0.0000E+00  0.0000E+00  0.0000E+00  0.0000E+00
     -9.410  0.0000E+00  0.0000E+00  0.0000E+00  0.0000E+00
     -9.370  0.0000E+00  0.0000E+00  0.0000E+00  0.0000E+00
     -9.330  0.0000E+00  0.0000E+00  0.0000E+00  0.0000E+00
     -9.291  0.0000E+00  0.0000E+00  0.0000E+00  0.0000E+00
     -9.251  0.0000E+00  0.0000E+00  0.0000E+00  0.0000E+00
     -9.212  0.0000E+00  0.0000E+00  0.0000E+00  0.0000E+00
     -9.172  0.0000E+00  0.0000E+00  0.0000E+00  0.0000E+00
     -9.133  0.0000E+00  0.0000E+00  0.0000E+00  0.0000E+00
     -9.093  0.0000E+00  0.0000E+00  0.0000E+00  0.0000E+00
     -9.054  0.0000E+00  0.0000E+00  0.0000E+00  0.0000E+00
     -9.014  0.0000E+00  0.0000E+00  0.0000E+00  0.0000E+00
     -8.974  0.0000E+00  0.0000E+00  0.0000E+00  0.0000E+00
     -8.935  0.0000E+00  0.0000E+00  0.0000E+00  0.0000E+00
     -8.895  0.0000E+00  0.0000E+00  0.0000E+00  0.0000E+00
     -8.856  0.0000E+00  0.0000E+00  0.0000E+00  0.0000E+00
     -8.816  0.2807E-14  0.2807E-14  0.1110E-15  0.1110E-15
     -8.777  0.3087E-13  0.3087E-13  0.1332E-14  0.1332E-14
     -8.737  0.2891E-12  0.2891E-12  0.1277E-13  0.1277E-13
     -8.698  0.2445E-11  0.2445E-11  0.1095E-12  0.1095E-12
     -8.658  0.1930E-10  0.1930E-10  0.8729E-12  0.8729E-12
     -8.618  0.1408E-09  0.1408E-09  0.6443E-11  0.6444E-11
     -8.579  0.9507E-09  0.9507E-09  0.4405E-10  0.4405E-10
     -8.539  0.5938E-08  0.5938E-08  0.2789E-09  0.2789E-09
     -8.500  0.3431E-07  0.3431E-07  0.1636E-08  0.1636E-08
     -8.460  0.1834E-06  0.1834E-06  0.8892E-08  0.8892E-08
     -8.421  0.9071E-06  0.9072E-06  0.4478E-07  0.4478E-07
     -8.381  0.4151E-05  0.4151E-05  0.2090E-06  0.2090E-06
     -8.342  0.1757E-04  0.1757E-04  0.9040E-06  0.9040E-06
     -8.302  0.6882E-04  0.6882E-04  0.3626E-05  0.3626E-05
     -8.262  0.2494E-03  0.2494E-03  0.1349E-04  0.1349E-04
     -8.223  0.8359E-03  0.8360E-03  0.4656E-04  0.4656E-04
     -8.183  0.2593E-02  0.2593E-02  0.1491E-03  0.1491E-03
     -8.144  0.7442E-02  0.7442E-02  0.4435E-03  0.4435E-03
     -8.104  0.1976E-01  0.1976E-01  0.1225E-02  0.1225E-02
     -8.065  0.4858E-01  0.4858E-01  0.3147E-02  0.3147E-02
     -8.025  0.1105E+00  0.1105E+00  0.7518E-02  0.7519E-02
     -7.985  0.2328E+00  0.2328E+00  0.1673E-01  0.1673E-01
     -7.946  0.4541E+00  0.4541E+00  0.3469E-01  0.3469E-01
     -7.906  0.8213E+00  0.8213E+00  0.6718E-01  0.6718E-01
     -7.867  0.1378E+01  0.1378E+01  0.1217E+00  0.1217E+00
     -7.827  0.2151E+01  0.2151E+01  0.2068E+00  0.2068E+00
     -7.788  0.3131E+01  0.3131E+01  0.3306E+00  0.3306E+00
     -7.748  0.4269E+01  0.4269E+01  0.4995E+00  0.4995E+00
     -7.709  0.5488E+01  0.5488E+01  0.7166E+00  0.7166E+00
     -7.669  0.6713E+01  0.6713E+01  0.9821E+00  0.9821E+00
     -7.629  0.7897E+01  0.7897E+01  0.1295E+01  0.1295E+01
     -7.590  0.9035E+01  0.9035E+01  0.1652E+01  0.1652E+01
     -7.550  0.1013E+02  0.1013E+02  0.2053E+01  0.2053E+01
     -7.511  0.1117E+02  0.1117E+02  0.2495E+01  0.2495E+01
     -7.471  0.1204E+02  0.1204E+02  0.2971E+01  0.2971E+01
     -7.432  0.1258E+02  0.1258E+02  0.3469E+01  0.3469E+01
     -7.392  0.1260E+02  0.1260E+02  0.3967E+01  0.3967E+01
     -7.353  0.1196E+02  0.1196E+02  0.4441E+01  0.4441E+01
     -7.313  0.1068E+02  0.1068E+02  0.4863E+01  0.4863E+01
     -7.273  0.8924E+01  0.8924E+01  0.5216E+01  0.5216E+01
     -7.234  0.6947E+01  0.6947E+01  0.5491E+01  0.5491E+01
     -7.194  0.5033E+01  0.5033E+01  0.5690E+01  0.5690E+01
     -7.155  0.3405E+01  0.3405E+01  0.5825E+01  0.5825E+01
     -7.115  0.2190E+01  0.2190E+01  0.5911E+01  0.5911E+01
     -7.076  0.1428E+01  0.1428E+01  0.5968E+01  0.5968E+01
     -7.036  0.1112E+01  0.1112E+01  0.6012E+01  0.6012E+01
     -6.997  0.1230E+01  0.1230E+01  0.6061E+01  0.6061E+01
     -6.957  0.1787E+01  0.1787E+01  0.6131E+01  0.6131E+01
     -6.917  0.2791E+01  0.2791E+01  0.6242E+01  0.6242E+01
     -6.878  0.4222E+01  0.4222E+01  0.6409E+01  0.6409E+01
     -6.838  0.5981E+01  0.5981E+01  0.6645E+01  0.6645E+01
     -6.799  0.7864E+01  0.7864E+01  0.6956E+01  0.6956E+01
     -6.759  0.9575E+01  0.9575E+01  0.7335E+01  0.7335E+01
     -6.720  0.1079E+02  0.1079E+02  0.7762E+01  0.7762E+01
     -6.680  0.1125E+02  0.1125E+02  0.8207E+01  0.8207E+01
     -6.641  0.1085E+02  0.1085E+02  0.8636E+01  0.8636E+01
     -6.601  0.9681E+01  0.9681E+01  0.9019E+01  0.9019E+01
     -6.561  0.7993E+01  0.7993E+01  0.9335E+01  0.9335E+01
     -6.522  0.6106E+01  0.6106E+01  0.9577E+01  0.9577E+01
     -6.482  0.4316E+01  0.4316E+01  0.9747E+01  0.9747E+01
     -6.443  0.2822E+01  0.2822E+01  0.9859E+01  0.9859E+01
     -6.403  0.1708E+01  0.1708E+01  0.9926E+01  0.9926E+01
     -6.364  0.9580E+00  0.9580E+00  0.9964E+01  0.9964E+01
     -6.324  0.5019E+00  0.5019E+00  0.9984E+01  0.9984E+01
     -6.284  0.2567E+00  0.2567E+00  0.9994E+01  0.9994E+01
     -6.245  0.1560E+00  0.1560E+00  0.1000E+02  0.1000E+02
     -6.205  0.1655E+00  0.1655E+00  0.1001E+02  0.1001E+02
     -6.166  0.2886E+00  0.2886E+00  0.1002E+02  0.1002E+02
     -6.126  0.5661E+00  0.5661E+00  0.1004E+02  0.1004E+02
     -6.087  0.1069E+01  0.1069E+01  0.1008E+02  0.1008E+02
     -6.047  0.1880E+01  0.1880E+01  0.1016E+02  0.1016E+02
     -6.008  0.3064E+01  0.3064E+01  0.1028E+02  0.1028E+02
     -5.968  0.4620E+01  0.4620E+01  0.1046E+02  0.1046E+02
     -5.928  0.6446E+01  0.6446E+01  0.1072E+02  0.1072E+02
     -5.889  0.8322E+01  0.8322E+01  0.1105E+02  0.1105E+02
     -5.849  0.9941E+01  0.9941E+01  0.1144E+02  0.1144E+02
     -5.810  0.1099E+02  0.1099E+02  0.1187E+02  0.1187E+02
     -5.770  0.1125E+02  0.1125E+02  0.1232E+02  0.1232E+02
     -5.731  0.1068E+02  0.1068E+02  0.1274E+02  0.1274E+02
     -5.691  0.9422E+01  0.9422E+01  0.1311E+02  0.1311E+02
     -5.652  0.7791E+01  0.7791E+01  0.1342E+02  0.1342E+02
     -5.612  0.6146E+01  0.6146E+01  0.1367E+02  0.1367E+02
     -5.572  0.4809E+01  0.4809E+01  0.1386E+02  0.1386E+02
     -5.533  0.3984E+01  0.3984E+01  0.1401E+02  0.1401E+02
     -5.493  0.3729E+01  0.3729E+01  0.1416E+02  0.1416E+02
     -5.454  0.3964E+01  0.3964E+01  0.1432E+02  0.1432E+02
     -5.414  0.4503E+01  0.4503E+01  0.1450E+02  0.1450E+02
     -5.375  0.5108E+01  0.5108E+01  0.1470E+02  0.1470E+02
     -5.335  0.5548E+01  0.5548E+01  0.1492E+02  0.1492E+02
     -5.296  0.5654E+01  0.5654E+01  0.1514E+02  0.1514E+02
     -5.256  0.5361E+01  0.5361E+01  0.1535E+02  0.1535E+02
     -5.216  0.4714E+01  0.4714E+01  0.1554E+02  0.1554E+02
     -5.177  0.3838E+01  0.3838E+01  0.1569E+02  0.1569E+02
     -5.137  0.2892E+01  0.2892E+01  0.1581E+02  0.1581E+02
     -5.098  0.2017E+01  0.2017E+01  0.1589E+02  0.1589E+02
     -5.058  0.1301E+01  0.1301E+01  0.1594E+02  0.1594E+02
     -5.019  0.7768E+00  0.7768E+00  0.1597E+02  0.1597E+02
     -4.979  0.4290E+00  0.4290E+00  0.1598E+02  0.1598E+02
     -4.940  0.2192E+00  0.2192E+00  0.1599E+02  0.1599E+02
     -4.900  0.1037E+00  0.1036E+00  0.1600E+02  0.1600E+02
     -4.860  0.4534E-01  0.4534E-01  0.1600E+02  0.1600E+02
     -4.821  0.1835E-01  0.1835E-01  0.1600E+02  0.1600E+02
     -4.781  0.6870E-02  0.6870E-02  0.1600E+02  0.1600E+02
     -4.742  0.2380E-02  0.2380E-02  0.1600E+02  0.1600E+02
     -4.702  0.7627E-03  0.7627E-03  0.1600E+02  0.1600E+02
     -4.663  0.2261E-03  0.2261E-03  0.1600E+02  0.1600E+02
     -4.623  0.6204E-04  0.6204E-04  0.1600E+02  0.1600E+02
     -4.583  0.1575E-04  0.1574E-04  0.1600E+02  0.1600E+02
     -4.544  0.3697E-05  0.3697E-05  0.1600E+02  0.1600E+02
     -4.504  0.8031E-06  0.8031E-06  0.1600E+02  0.1600E+02
     -4.465  0.1614E-06  0.1614E-06  0.1600E+02  0.1600E+02
     -4.425  0.3001E-07  0.3001E-07  0.1600E+02  0.1600E+02
     -4.386  0.5162E-08  0.5162E-08  0.1600E+02  0.1600E+02
     -4.346  0.8215E-09  0.8215E-09  0.1600E+02  0.1600E+02
     -4.307  0.1210E-09  0.1209E-09  0.1600E+02  0.1600E+02
     -4.267  0.1647E-10  0.1647E-10  0.1600E+02  0.1600E+02
     -4.227  0.2077E-11  0.2077E-11  0.1600E+02  0.1600E+02
     -4.188  0.2414E-12  0.2414E-12  0.1600E+02  0.1600E+02
     -4.148  0.2807E-13  0.2807E-13  0.1600E+02  0.1600E+02
     -4.109  0.0000E+00  0.0000E+00  0.1600E+02  0.1600E+02
     -4.069  0.0000E+00  0.0000E+00  0.1600E+02  0.1600E+02
     -4.030  0.0000E+00  0.0000E+00  0.1600E+02  0.1600E+02
     -3.990  0.0000E+00  0.0000E+00  0.1600E+02  0.1600E+02
     -3.951  0.0000E+00  0.0000E+00  0.1600E+02  0.1600E+02
     -3.911  0.0000E+00  0.0000E+00  0.1600E+02  0.1600E+02
     -3.871  0.0000E+00  0.0000E+00  0.1600E+02  0.1600E+02
     -3.832  0.0000E+00  0.0000E+00  0.1600E+02  0.1600E+02
     -3.792  0.0000E+00  0.0000E+00  0.1600E+02  0.1600E+02
     -3.753  0.0000E+00  0.0000E+00  0.1600E+02  0.1600E+02
     -3.713  0.0000E+00  0.0000E+00  0.1600E+02  0.1600E+02
     -3.674  0.0000E+00  0.0000E+00  0.1600E+02  0.1600E+02
     -3.634  0.0000E+00  0.0000E+00  0.1600E+02  0.1600E+02
     -3.595  0.0000E+00  0.0000E+00  0.1600E+02  0.1600E+02
     -3.555  0.0000E+00  0.0000E+00  0.1600E+02  0.1600E+02
     -3.515  0.0000E+00  0.0000E+00  0.1600E+02  0.1600E+02
     -3.476  0.0000E+00  0.0000E+00  0.1600E+02  0.1600E+02
     -3.436  0.0000E+00  0.0000E+00  0.1600E+02  0.1600E+02
     -3.397  0.0000E+00  0.0000E+00  0.1600E+02  0.1600E+02
     -3.357  0.0000E+00  0.0000E+00  0.1600E+02  0.1600E+02
     -3.318  0.0000E+00  0.0000E+00  0.1600E+02  0.1600E+02
     -3.278  0.0000E+00  0.0000E+00  0.1600E+02  0.1600E+02
     -3.239  0.0000E+00  0.0000E+00  0.1600E+02  0.1600E+02
     -3.199  0.0000E+00  0.0000E+00  0.1600E+02  0.1600E+02
     -3.159  0.0000E+00  0.0000E+00  0.1600E+02  0.1600E+02
     -3.120  0.0000E+00  0.0000E+00  0.1600E+02  0.1600E+02
     -3.080  0.0000E+00  0.0000E+00  0.1600E+02  0.1600E+02
     -3.041  0.0000E+00  0.0000E+00  0.1600E+02  0.1600E+02
     -3.001  0.0000E+00  0.0000E+00  0.1600E+02  0.1600E+02
     -2.962  0.0000E+00  0.0000E+00  0.1600E+02  0.1600E+02
     -2.922  0.0000E+00  0.0000E+00  0.1600E+02  0.1600E+02
     -2.883  0.0000E+00  0.0000E+00  0.1600E+02  0.1600E+02
     -2.843  0.0000E+00  0.0000E+00  0.1600E+02  0.1600E+02
     -2.803  0.0000E+00  0.0000E+00  0.1600E+02  0.1600E+02
     -2.764  0.0000E+00  0.0000E+00  0.1600E+02  0.1600E+02
     -2.724  0.0000E+00  0.0000E+00  0.1600E+02  0.1600E+02
     -2.685  0.0000E+00  0.0000E+00  0.1600E+02  0.1600E+02
     -2.645  0.0000E+00  0.0000E+00  0.1600E+02  0.1600E+02
     -2.606  0.0000E+00  0.0000E+00  0.1600E+02  0.1600E+02
     -2.566  0.0000E+00  0.0000E+00  0.1600E+02  0.1600E+02
     -2.526  0.0000E+00  0.0000E+00  0.1600E+02  0.1600E+02
     -2.487  0.0000E+00  0.0000E+00  0.1600E+02  0.1600E+02
     -2.447  0.0000E+00  0.0000E+00  0.1600E+02  0.1600E+02
     -2.408  0.0000E+00  0.0000E+00  0.1600E+02  0.1600E+02
     -2.368  0.0000E+00  0.0000E+00  0.1600E+02  0.1600E+02
     -2.329  0.0000E+00  0.0000E+00  0.1600E+02  0.1600E+02
     -2.289  0.0000E+00  0.0000E+00  0.1600E+02  0.1600E+02
     -2.250  0.0000E+00  0.0000E+00  0.1600E+02  0.1600E+02
     -2.210  0.0000E+00  0.0000E+00  0.1600E+02  0.1600E+02
     -2.170  0.0000E+00  0.0000E+00  0.1600E+02  0.1600E+02
     -2.131  0.0000E+00  0.0000E+00  0.1600E+02  0.1600E+02
     -2.091  0.0000E+00  0.0000E+00  0.1600E+02  0.1600E+02
     -2.052  0.0000E+00  0.0000E+00  0.1600E+02  0.1600E+02
     -2.012  0.0000E+00  0.0000E+00  0.1600E+02  0.1600E+02
     -1.973  0.0000E+00  0.0000E+00  0.1600E+02  0.1600E+02
     -1.933  0.0000E+00  0.0000E+00  0.1600E+02  0.1600E+02
     -1.894  0.0000E+00  0.0000E+00  0.1600E+02  0.1600E+02
     -1.854  0.0000E+00  0.0000E+00  0.1600E+02  0.1600E+02
     -1.814  0.0000E+00  0.0000E+00  0.1600E+02  0.1600E+02
     -1.775  0.0000E+00  0.0000E+00  0.1600E+02  0.1600E+02
     -1.735  0.0000E+00  0.0000E+00  0.1600E+02  0.1600E+02
     -1.696  0.0000E+00  0.0000E+00  0.1600E+02  0.1600E+02
     -1.656  0.0000E+00  0.0000E+00  0.1600E+02  0.1600E+02
     -1.617  0.0000E+00  0.0000E+00  0.1600E+02  0.1600E+02
     -1.577  0.0000E+00  0.0000E+00  0.1600E+02  0.1600E+02
     -1.538  0.0000E+00  0.0000E+00  0.1600E+02  0.1600E+02
     -1.498  0.0000E+00  0.0000E+00  0.1600E+02  0.1600E+02
     -1.458  0.0000E+00  0.0000E+00  0.1600E+02  0.1600E+02
     -1.419  0.0000E+00  0.0000E+00  0.1600E+02  0.1600E+02
     -1.379  0.0000E+00  0.0000E+00  0.1600E+02  0.1600E+02
     -1.340  0.0000E+00  0.0000E+00  0.1600E+02  0.1600E+02
     -1.300  0.2807E-14  0.2807E-14  0.1600E+02  0.1600E+02
     -1.261  0.1684E-13  0.1684E-13  0.1600E+02  0.1600E+02
     -1.221  0.1656E-12  0.1768E-12  0.1600E+02  0.1600E+02
     -1.182  0.1473E-11  0.1546E-11  0.1600E+02  0.1600E+02
     -1.142  0.1197E-10  0.1254E-10  0.1600E+02  0.1600E+02
     -1.102  0.9010E-10  0.9421E-10  0.1600E+02  0.1600E+02
     -1.063  0.6282E-09  0.6555E-09  0.1600E+02  0.1600E+02
     -1.023  0.4057E-08  0.4224E-08  0.1600E+02  0.1600E+02
     -0.984  0.2427E-07  0.2522E-07  0.1600E+02  0.1600E+02
     -0.944  0.1345E-06  0.1395E-06  0.1600E+02  0.1600E+02
     -0.905  0.6910E-06  0.7148E-06  0.1600E+02  0.1600E+02
     -0.865  0.3289E-05  0.3395E-05  0.1600E+02  0.1600E+02
     -0.825  0.1451E-04  0.1495E-04  0.1600E+02  0.1600E+02
     -0.786  0.5934E-04  0.6099E-04  0.1600E+02  0.1600E+02
     -0.746  0.2250E-03  0.2308E-03  0.1600E+02  0.1600E+02
     -0.707  0.7910E-03  0.8097E-03  0.1600E+02  0.1600E+02
     -0.667  0.2579E-02  0.2635E-02  0.1600E+02  0.1600E+02
     -0.628  0.7801E-02  0.7954E-02  0.1600E+02  0.1600E+02
     -0.588  0.2189E-01  0.2228E-01  0.1600E+02  0.1600E+02
     -0.549  0.5699E-01  0.5788E-01  0.1600E+02  0.1600E+02
     -0.509  0.1377E+00  0.1396E+00  0.1601E+02  0.1601E+02
     -0.469  0.3087E+00  0.3124E+00  0.1602E+02  0.1602E+02
     -0.430  0.6423E+00  0.6490E+00  0.1605E+02  0.1605E+02
     -0.390  0.1241E+01  0.1252E+01  0.1610E+02  0.1610E+02
     -0.351  0.2225E+01  0.2241E+01  0.1618E+02  0.1619E+02
     -0.311  0.3704E+01  0.3727E+01  0.1633E+02  0.1633E+02
     -0.272  0.5727E+01  0.5755E+01  0.1656E+02  0.1656E+02
     -0.232  0.8224E+01  0.8254E+01  0.1688E+02  0.1689E+02
     -0.193  0.1097E+02  0.1100E+02  0.1732E+02  0.1732E+02
     -0.153  0.1362E+02  0.1364E+02  0.1785E+02  0.1786E+02
     -0.113  0.1573E+02  0.1575E+02  0.1848E+02  0.1848E+02
     -0.074  0.1697E+02  0.1697E+02  0.1915E+02  0.1916E+02
     -0.034  0.1715E+02  0.1714E+02  0.1983E+02  0.1983E+02
      0.005  0.1635E+02  0.1634E+02  0.2047E+02  0.2048E+02
      0.045  0.1487E+02  0.1486E+02  0.2106E+02  0.2107E+02
      0.084  0.1309E+02  0.1308E+02  0.2158E+02  0.2159E+02
      0.124  0.1134E+02  0.1134E+02  0.2203E+02  0.2203E+02
      0.163  0.9828E+01  0.9827E+01  0.2242E+02  0.2242E+02
      0.203  0.8560E+01  0.8557E+01  0.2276E+02  0.2276E+02
      0.243  0.7447E+01  0.7438E+01  0.2305E+02  0.2306E+02
      0.282  0.6370E+01  0.6354E+01  0.2330E+02  0.2331E+02
      0.322  0.5264E+01  0.5243E+01  0.2351E+02  0.2351E+02
      0.361  0.4139E+01  0.4115E+01  0.2367E+02  0.2368E+02
      0.401  0.3063E+01  0.3040E+01  0.2380E+02  0.2380E+02
      0.440  0.2119E+01  0.2099E+01  0.2388E+02  0.2388E+02
      0.480  0.1365E+01  0.1349E+01  0.2393E+02  0.2393E+02
      0.519  0.8159E+00  0.8052E+00  0.2397E+02  0.2397E+02
      0.559  0.4522E+00  0.4454E+00  0.2398E+02  0.2398E+02
      0.599  0.2321E+00  0.2282E+00  0.2399E+02  0.2399E+02
      0.638  0.1103E+00  0.1083E+00  0.2400E+02  0.2400E+02
      0.678  0.4852E-01  0.4753E-01  0.2400E+02  0.2400E+02
      0.717  0.1975E-01  0.1931E-01  0.2400E+02  0.2400E+02
      0.757  0.7439E-02  0.7259E-02  0.2400E+02  0.2400E+02
      0.796  0.2592E-02  0.2525E-02  0.2400E+02  0.2400E+02
      0.836  0.8358E-03  0.8126E-03  0.2400E+02  0.2400E+02
      0.876  0.2493E-03  0.2419E-03  0.2400E+02  0.2400E+02
      0.915  0.6881E-04  0.6665E-04  0.2400E+02  0.2400E+02
      0.955  0.1757E-04  0.1699E-04  0.2400E+02  0.2400E+02
      0.994  0.4151E-05  0.4005E-05  0.2400E+02  0.2400E+02
      1.034  0.9071E-06  0.8737E-06  0.2400E+02  0.2400E+02
      1.073  0.1834E-06  0.1763E-06  0.2400E+02  0.2400E+02
      1.113  0.3431E-07  0.3292E-07  0.2400E+02  0.2400E+02
      1.152  0.5938E-08  0.5687E-08  0.2400E+02  0.2400E+02
      1.192  0.9507E-09  0.9088E-09  0.2400E+02  0.2400E+02
      1.232  0.1408E-09  0.1344E-09  0.2400E+02  0.2400E+02
      1.271  0.1930E-10  0.1838E-10  0.2400E+02  0.2400E+02
      1.311  0.2442E-11  0.2324E-11  0.2400E+02  0.2400E+02
      1.350  0.2919E-12  0.2694E-12  0.2400E+02  0.2400E+02
      1.390  0.3368E-13  0.3368E-13  0.2400E+02  0.2400E+02
      1.429  0.0000E+00  0.0000E+00  0.2400E+02  0.2400E+02
      1.469  0.0000E+00  0.0000E+00  0.2400E+02  0.2400E+02
      1.508  0.0000E+00  0.0000E+00  0.2400E+02  0.2400E+02
      1.548  0.0000E+00  0.0000E+00  0.2400E+02  0.2400E+02
      1.588  0.0000E+00  0.0000E+00  0.2400E+02  0.2400E+02
      1.627  0.0000E+00  0.0000E+00  0.2400E+02  0.2400E+02
      1.667  0.0000E+00  0.0000E+00  0.2400E+02  0.2400E+02
      1.706  0.0000E+00  0.0000E+00  0.2400E+02  0.2400E+02
      1.746  0.0000E+00  0.0000E+00  0.2400E+02  0.2400E+02
      1.785  0.0000E+00  0.0000E+00  0.2400E+02  0.2400E+02
      1.825  0.0000E+00  0.0000E+00  0.2400E+02  0.2400E+02
      1.864  0.0000E+00  0.0000E+00  0.2400E+02  0.2400E+02
      1.904  0.0000E+00  0.0000E+00  0.2400E+02  0.2400E+02
      1.944  0.0000E+00  0.0000E+00  0.2400E+02  0.2400E+02
      1.983  0.0000E+00  0.0000E+00  0.2400E+02  0.2400E+02
      2.023  0.0000E+00  0.0000E+00  0.2400E+02  0.2400E+02
      2.062  0.0000E+00  0.0000E+00  0.2400E+02  0.2400E+02
      2.102  0.0000E+00  0.0000E+00  0.2400E+02  0.2400E+02
      2.141  0.0000E+00  0.0000E+00  0.2400E+02  0.2400E+02
      2.181  0.0000E+00  0.0000E+00  0.2400E+02  0.2400E+02
      2.220  0.0000E+00  0.0000E+00  0.2400E+02  0.2400E+02
