    8    8    1    2
  0.5850000E+03  0.1500000E-08  0.1500000E-08  0.2080000E-08  0.5000000E-15
  1.000000000000000E-004
  CAR 
 unknown system                          
      8      1     12
 
  0.0000000E+00  0.0000000E+00  0.0000000E+00  0.1000000E+01
    1       -7.646923     -7.646923   1.000000   1.000000
    2       -7.395570     -7.395570   1.000000   1.000000
    3       -7.395570     -7.395570   1.000000   1.000000
    4       -6.698449     -6.698449   0.500010   0.500010
    5       -6.698442     -6.698442   0.499991   0.499991
    6       -5.798539     -5.798540   0.000000   0.000000
    7       -5.798539     -5.798540   0.000000   0.000000
    8       -5.320724     -5.320726   0.000000   0.000000
    9       -0.120009     -0.120977   0.000000   0.000000
   10       -0.061052     -0.061192   0.000000   0.000000
   11       -0.061052     -0.061192   0.000000   0.000000
   12        0.220480      0.219527   0.000000   0.000000
