       N       E                     dE             d eps       ncg     rms          rms(c)
DAV:   1     0.194309260057E+02    0.19431E+02   -0.67485E+02    48   0.156E+02
DAV:   2    -0.916505418030E+00   -0.20347E+02   -0.20249E+02    72   0.478E+01
DAV:   3    -0.504333233393E+01   -0.41268E+01   -0.39346E+01    56   0.237E+01
DAV:   4    -0.518648001975E+01   -0.14315E+00   -0.14025E+00    60   0.486E+00
DAV:   5    -0.518778757926E+01   -0.13076E-02   -0.13073E-02    60   0.427E-01    0.131E+00
DAV:   6    -0.519557220780E+01   -0.77846E-02   -0.12053E-02    48   0.474E-01    0.765E-01
DAV:   7    -0.521946949086E+01   -0.23897E-01   -0.25314E-02    48   0.725E-01    0.693E-02
DAV:   8    -0.522100407836E+01   -0.15346E-02   -0.12180E-03    56   0.170E-01    0.296E-02
DAV:   9    -0.522114581933E+01   -0.14174E-03   -0.25847E-05    60   0.293E-02    0.849E-03
DAV:  10    -0.522118425041E+01   -0.38431E-04   -0.37391E-06    56   0.852E-03    0.206E-03
DAV:  11    -0.522124415873E+01   -0.59908E-04   -0.57843E-06    56   0.894E-03    0.115E-03
DAV:  12    -0.522126167300E+01   -0.17514E-04   -0.11172E-06    40   0.423E-03    0.804E-04
DAV:  13    -0.522127580467E+01   -0.14132E-04   -0.11285E-06    32   0.352E-03    0.600E-04
DAV:  14    -0.522127955972E+01   -0.37550E-05   -0.49439E-07    32   0.235E-03    0.228E-04
DAV:  15    -0.522128143556E+01   -0.18758E-05   -0.56206E-08    40   0.103E-03    0.203E-04
DAV:  16    -0.522128571483E+01   -0.42793E-05   -0.96872E-08    32   0.105E-03    0.112E-04
DAV:  17    -0.522128750411E+01   -0.17893E-05   -0.56945E-08    32   0.783E-04    0.693E-05
DAV:  18    -0.522128822560E+01   -0.72149E-06   -0.78684E-09    32   0.347E-04
   1 F= -.52212882E+01 E0= -.51084497E+01  d E =-.225677E+00  mag=     0.0000
