<?xml version="1.0" encoding="ISO-8859-1"?>
<modeling>
 <generator>
  <i name="program" type="string">vasp </i>
  <i name="version" type="string">5.4.4.18Apr17-6-g9f103f2a35  </i>
  <i name="subversion" type="string">(build Aug 24 2024 05:40:03) complex            parallel </i>
  <i name="platform" type="string">IFC22_IMPI </i>
  <i name="date" type="string">2024 11 22 </i>
  <i name="time" type="string">21:47:15 </i>
 </generator>
 <incar>
  <i type="string" name="PREC">normal</i>
  <i type="int" name="ISPIN">     2</i>
  <i type="int" name="ICHARG">     2</i>
  <i type="int" name="NELM">   100</i>
  <i name="EDIFF">      0.00000100</i>
  <i type="int" name="NSW">     0</i>
  <i name="ENCUT">    300.00000000</i>
  <i name="NUPDOWN">      0.00000000</i>
  <i type="int" name="ISMEAR">     0</i>
  <i name="SIGMA">      0.20000000</i>
  <i type="logical" name="LWAVE"> F  </i>
  <i type="logical" name="LCHARG"> F  </i>
  <v type="int" name="KPOINT_BSE">    -1     0     0     0</v>
  <i type="int" name="NELM">   100</i>
 </incar>
 <structure name="primitive_cell" >
  <crystal>
   <varray name="basis" >
    <v>      15.00000000       0.00000000       0.00000000 </v>
    <v>       0.00000000      15.00000000       0.00000000 </v>
    <v>       0.00000000       0.00000000       2.60000000 </v>
   </varray>
   <i name="volume">    585.00000000 </i>
   <varray name="rec_basis" >
    <v>       0.06666667      -0.00000000       0.00000000 </v>
    <v>       0.00000000       0.06666667       0.00000000 </v>
    <v>      -0.00000000      -0.00000000       0.38461538 </v>
   </varray>
  </crystal>
  <varray name="positions" >
   <v>       0.00000000       0.00000000       0.00000000 </v>
  </varray>
 </structure>
 <varray name="primitive_index" >
  <v type="int" >        1 </v>
 </varray>
 <kpoints>
  <generation param="Gamma">
   <v type="int" name="divisions">       1        1        1 </v>
   <v name="usershift">      0.00000000       0.00000000       0.00000000 </v>
   <v name="genvec1">      1.00000000      -0.00000000       0.00000000 </v>
   <v name="genvec2">      0.00000000       1.00000000       0.00000000 </v>
   <v name="genvec3">      0.00000000       0.00000000       1.00000000 </v>
   <v name="shift">      0.00000000       0.00000000       0.00000000 </v>
  </generation>
  <varray name="kpointlist" >
   <v>       0.00000000       0.00000000       0.00000000 </v>
  </varray>
  <varray name="weights" >
   <v>       1.00000000 </v>
  </varray>
 </kpoints>
 <parameters>
  <separator name="general" >
   <i type="string" name="SYSTEM">unknown system</i>
   <i type="logical" name="LCOMPAT"> F  </i>
  </separator>
  <separator name="electronic" >
   <i type="string" name="PREC">normal</i>
   <i name="ENMAX">    300.00000000</i>
   <i name="ENAUG">    400.00000000</i>
   <i name="EDIFF">      0.00000100</i>
   <i type="int" name="IALGO">    38</i>
   <i type="int" name="IWAVPR">    10</i>
   <i type="int" name="NBANDS">    12</i>
   <i name="NELECT">      8.00000000</i>
   <i type="int" name="TURBO">     0</i>
   <i type="int" name="IRESTART">     0</i>
   <i type="int" name="NREBOOT">     0</i>
   <i type="int" name="NMIN">     0</i>
   <i name="EREF">      0.00000000</i>
   <separator name="electronic smearing" >
    <i type="int" name="ISMEAR">     0</i>
    <i name="SIGMA">      0.20000000</i>
    <i name="KSPACING">      0.50000000</i>
    <i type="logical" name="KGAMMA"> T  </i>
   </separator>
   <separator name="electronic projectors" >
    <i type="logical" name="LREAL"> F  </i>
    <v name="ROPT">      0.00000000</v>
    <i type="int" name="LMAXPAW">  -100</i>
    <i type="int" name="LMAXMIX">     2</i>
    <i type="logical" name="NLSPLINE"> F  </i>
   </separator>
   <separator name="electronic startup" >
    <i type="int" name="ISTART">     0</i>
    <i type="int" name="ICHARG">     2</i>
    <i type="int" name="INIWAV">     1</i>
   </separator>
   <separator name="electronic spin" >
    <i type="int" name="ISPIN">     2</i>
    <i type="logical" name="LNONCOLLINEAR"> F  </i>
    <v name="MAGMOM">      0.00000000      0.00000000      0.00000000      0.00000000      0.00000000      0.00000000      0.00000000      0.00000000</v>
    <i name="NUPDOWN">      0.00000000</i>
    <i type="logical" name="LSORBIT"> F  </i>
    <v name="SAXIS">      0.00000000      0.00000000      1.00000000</v>
    <i type="logical" name="LSPIRAL"> F  </i>
    <v name="QSPIRAL">      0.00000000      0.00000000      0.00000000</v>
    <i type="logical" name="LZEROZ"> F  </i>
   </separator>
   <separator name="electronic exchange-correlation" >
    <i type="logical" name="LASPH"> F  </i>
    <i type="logical" name="LMETAGGA"> F  </i>
   </separator>
   <separator name="electronic convergence" >
    <i type="int" name="NELM">   100</i>
    <i type="int" name="NELMDL">    -5</i>
    <i type="int" name="NELMIN">     2</i>
    <i name="ENINI">    300.00000000</i>
    <separator name="electronic convergence detail" >
     <i type="logical" name="LDIAG"> T  </i>
     <i type="logical" name="LSUBROT"> F  </i>
     <i name="WEIMIN">      0.00000000</i>
     <i name="EBREAK">      0.00000002</i>
     <i name="DEPER">      0.30000000</i>
     <i type="int" name="NRMM">     4</i>
     <i name="TIME">      0.40000000</i>
    </separator>
   </separator>
   <separator name="electronic mixer" >
    <i name="AMIX">      0.40000000</i>
    <i name="BMIX">      1.00000000</i>
    <i name="AMIN">      0.10000000</i>
    <i name="AMIX_MAG">      1.60000000</i>
    <i name="BMIX_MAG">      1.00000000</i>
    <separator name="electronic mixer details" >
     <i type="int" name="IMIX">     4</i>
     <i type="logical" name="MIXFIRST"> F  </i>
     <i type="int" name="MAXMIX">   -45</i>
     <i name="WC">    100.00000000</i>
     <i type="int" name="INIMIX">     1</i>
     <i type="int" name="MIXPRE">     1</i>
     <i type="int" name="MREMOVE">     5</i>
    </separator>
   </separator>
   <separator name="electronic dipolcorrection" >
    <i type="logical" name="LDIPOL"> F  </i>
    <i type="logical" name="LMONO"> F  </i>
    <i type="int" name="IDIPOL">     0</i>
    <i name="EPSILON">      1.00000000</i>
    <v name="DIPOL">   -100.00000000   -100.00000000   -100.00000000</v>
    <i name="EFIELD">      0.00000000</i>
   </separator>
  </separator>
  <separator name="grids" >
   <i type="int" name="NGX">    64</i>
   <i type="int" name="NGY">    64</i>
   <i type="int" name="NGZ">    90</i>
   <i type="int" name="NGXF">   128</i>
   <i type="int" name="NGYF">   128</i>
   <i type="int" name="NGZF">   180</i>
   <i type="logical" name="ADDGRID"> F  </i>
  </separator>
  <separator name="ionic" >
   <i type="int" name="NSW">     0</i>
   <i type="int" name="IBRION">    -1</i>
   <i type="int" name="MDALGO">     0</i>
   <i type="int" name="ISIF">     2</i>
   <i name="PSTRESS">      0.00000000</i>
   <i name="EDIFFG">      0.00001000</i>
   <i type="int" name="NFREE">     0</i>
   <i name="POTIM">      0.50000000</i>
   <i name="SMASS">     -3.00000000</i>
   <i name="SCALEE">      1.00000000</i>
  </separator>
  <separator name="ionic md" >
   <i name="TEBEG">      0.00010000</i>
   <i name="TEEND">      0.00010000</i>
   <i type="int" name="NBLOCK">     1</i>
   <i type="int" name="KBLOCK">     1</i>
   <i type="int" name="NPACO">   256</i>
   <i name="APACO">     16.00000000</i>
  </separator>
  <separator name="symmetry" >
   <i type="int" name="ISYM">     2</i>
   <i name="SYMPREC">      0.00001000</i>
  </separator>
  <separator name="dos" >
   <i type="int" name="LORBIT">     0</i>
   <v name="RWIGS">     -1.00000000</v>
   <i type="int" name="NEDOS">   301</i>
   <i name="EMIN">     10.00000000</i>
   <i name="EMAX">    -10.00000000</i>
   <i name="EFERMI">      0.00000000</i>
  </separator>
  <separator name="writing" >
   <i type="int" name="NWRITE">     2</i>
   <i type="logical" name="LWAVE"> F  </i>
   <i type="logical" name="LDOWNSAMPLE"> F  </i>
   <i type="logical" name="LCHARG"> F  </i>
   <i type="logical" name="LPARD"> F  </i>
   <i type="logical" name="LVTOT"> F  </i>
   <i type="logical" name="LVHAR"> F  </i>
   <i type="logical" name="LELF"> F  </i>
   <i type="logical" name="LOPTICS"> F  </i>
   <v name="STM">      0.00000000      0.00000000      0.00000000      0.00000000      0.00000000      0.00000000      0.00000000</v>
  </separator>
  <separator name="performance" >
   <i type="int" name="NPAR">     4</i>
   <i type="int" name="NSIM">     4</i>
   <i type="int" name="NBLK">    -1</i>
   <i type="logical" name="LPLANE"> T  </i>
   <i type="logical" name="LSCALAPACK"> T  </i>
   <i type="logical" name="LSCAAWARE"> F  </i>
   <i type="logical" name="LSCALU"> F  </i>
   <i type="logical" name="LASYNC"> F  </i>
   <i type="logical" name="LORBITALREAL"> F  </i>
  </separator>
  <separator name="miscellaneous" >
   <i type="int" name="IDIOT">     3</i>
   <i type="int" name="ISPECIAL">     0</i>
   <i type="logical" name="LMUSIC"> F  </i>
   <v name="POMASS">      1.00000000</v>
   <v name="DARWINR">      0.00000000</v>
   <v name="DARWINV">      1.00000000</v>
   <i type="logical" name="LCORR"> T  </i>
  </separator>
  <i type="logical" name="GGA_COMPAT"> T  </i>
  <i type="logical" name="LBERRY"> F  </i>
  <i type="int" name="ICORELEVEL">     0</i>
  <i type="logical" name="LDAU"> F  </i>
  <i type="int" name="I_CONSTRAINED_M">     0</i>
  <separator name="electronic exchange-correlation" >
   <i type="string" name="GGA">--</i>
   <i type="int" name="VOSKOWN">     0</i>
   <i type="logical" name="LHFCALC"> F  </i>
   <i type="string" name="PRECFOCK"></i>
   <i type="logical" name="LSYMGRAD"> F  </i>
   <i type="logical" name="LHFONE"> F  </i>
   <i type="logical" name="LRHFCALC"> F  </i>
   <i type="logical" name="LTHOMAS"> F  </i>
   <i type="logical" name="LMODELHF"> F  </i>
   <i name="ENCUT4O">     -1.00000000</i>
   <i type="int" name="EXXOEP">     0</i>
   <i type="int" name="FOURORBIT">     0</i>
   <i name="AEXX">      0.00000000</i>
   <i name="HFALPHA">      0.00000000</i>
   <i name="MCALPHA">      0.00000000</i>
   <i name="ALDAX">      1.00000000</i>
   <i name="AGGAX">      1.00000000</i>
   <i name="ALDAC">      1.00000000</i>
   <i name="AGGAC">      1.00000000</i>
   <i type="int" name="NKREDX">     1</i>
   <i type="int" name="NKREDY">     1</i>
   <i type="int" name="NKREDZ">     1</i>
   <i type="logical" name="SHIFTRED"> F  </i>
   <i type="logical" name="ODDONLY"> F  </i>
   <i type="logical" name="EVENONLY"> F  </i>
   <i type="int" name="LMAXFOCK">     0</i>
   <i type="int" name="NMAXFOCKAE">     0</i>
   <i type="logical" name="LFOCKAEDFT"> F  </i>
   <i name="HFSCREEN">      0.00000000</i>
   <i name="HFSCREENC">      0.00000000</i>
   <i type="int" name="NBANDSGWLOW">     0</i>
  </separator>
  <separator name="vdW DFT" >
   <i type="logical" name="LUSE_VDW"> F  </i>
   <i name="Zab_VDW">     -0.84910000</i>
   <i name="PARAM1">      0.12340000</i>
   <i name="PARAM2">      1.00000000</i>
   <i name="PARAM3">      0.00000000</i>
  </separator>
  <separator name="model GW" >
   <i type="int" name="MODEL_GW">     0</i>
   <i name="MODEL_EPS0">    351.00000000</i>
   <i name="MODEL_ALPHA">      1.00000000</i>
  </separator>
  <separator name="linear response parameters" >
   <i type="logical" name="LEPSILON"> F  </i>
   <i type="logical" name="LRPA"> F  </i>
   <i type="logical" name="LNABLA"> F  </i>
   <i type="logical" name="LVEL"> F  </i>
   <i type="int" name="KINTER">     0</i>
   <i name="CSHIFT">      0.10000000</i>
   <i name="OMEGAMAX">     -1.00000000</i>
   <i name="DEG_THRESHOLD">      0.00200000</i>
   <i name="RTIME">     -0.10000000</i>
   <i name="WPLASMAI">      0.00000000</i>
   <v name="DFIELD">      0.00000000      0.00000000      0.00000000</v>
   <v name="WPLASMA">      0.00000000      0.00000000      0.00000000      0.00000000      0.00000000      0.00000000      0.00000000      0.00000000      0.00000000</v>
  </separator>
  <separator name="orbital magnetization" >
   <i type="logical" name="NUCIND"> F  </i>
   <v name="MAGPOS">      0.00000000      0.00000000      0.00000000</v>
   <i type="logical" name="LNICSALL"> T  </i>
   <i type="logical" name="ORBITALMAG"> F  </i>
   <i type="logical" name="LMAGBLOCH"> F  </i>
   <i type="logical" name="LCHIMAG"> F  </i>
   <i type="logical" name="LGAUGE"> T  </i>
   <i type="int" name="MAGATOM">     0</i>
   <v name="MAGDIPOL">      0.00000000      0.00000000      0.00000000</v>
   <v name="AVECCONST">      0.00000000      0.00000000      0.00000000</v>
  </separator>
  <separator name="response functions" >
   <i type="logical" name="LADDER"> F  </i>
   <i type="logical" name="LRPAFORCE"> F  </i>
   <i type="logical" name="LFXC"> F  </i>
   <i type="logical" name="LHARTREE"> T  </i>
   <i type="int" name="IBSE">     0</i>
   <v type="int" name="KPOINT">    -1     0     0     0</v>
   <i type="logical" name="LTCTE"> F  </i>
   <i type="logical" name="LTETE"> F  </i>
   <i type="logical" name="LTRIPLET"> F  </i>
   <i type="logical" name="LFXCEPS"> F  </i>
   <i type="logical" name="LFXHEG"> F  </i>
   <i type="int" name="NATURALO">     2</i>
   <i type="logical" name="L2ORDER"> F  </i>
   <i type="logical" name="LMP2LT"> F  </i>
   <i type="logical" name="LUSEW"> F  </i>
   <i name="ENCUTGW">     -2.00000000</i>
   <i name="ENCUTGWSOFT">     -2.00000000</i>
   <i name="ENCUTLF">     -1.00000000</i>
   <i type="int" name="LMAXMP2">    -1</i>
   <i name="SCISSOR">      0.00000000</i>
   <i type="int" name="NOMEGA">     0</i>
   <i type="int" name="NOMEGAR">     0</i>
   <i type="int" name="NBANDSGW">    -1</i>
   <i type="int" name="NBANDSO">    -1</i>
   <i type="int" name="NBANDSV">    -1</i>
   <i type="int" name="NELM">   100</i>
   <i type="int" name="NELMHF">     1</i>
   <i type="int" name="DIM">     3</i>
   <i type="int" name="ANTIRES">     0</i>
   <i name="OMEGAMAX">    -30.00000000</i>
   <i name="OMEGAMIN">    -30.00000000</i>
   <i name="OMEGATL">   -200.00000000</i>
   <i type="int" name="OMEGAGRID">   140</i>
   <i name="CSHIFT">     -0.10000000</i>
   <i type="logical" name="SELFENERGY"> F  </i>
   <i type="logical" name="LSPECTRAL"> F  </i>
   <i type="logical" name="LSPECTRALGW"> F  </i>
   <i type="logical" name="LSINGLES"> F  </i>
   <i type="logical" name="LFERMIGW"> F  </i>
   <i type="logical" name="ODDONLYGW"> F  </i>
   <i type="logical" name="EVENONLYGW"> F  </i>
   <i type="int" name="NKREDLFX">     1</i>
   <i type="int" name="NKREDLFY">     1</i>
   <i type="int" name="NKREDLFZ">     1</i>
   <i type="int" name="MAXMEM">  2800</i>
   <i type="int" name="TELESCOPE">     0</i>
   <i type="int" name="TAUPAR">     1</i>
   <i type="int" name="OMEGAPAR">    -1</i>
   <i name="LAMBDA">      1.00000000</i>
  </separator>
  <separator name="External order field" >
   <i name="OFIELD_KAPPA">      0.00000000</i>
   <v name="OFIELD_K">      0.00000000      0.00000000      0.00000000</v>
   <i name="OFIELD_Q6_NEAR">      0.00000000</i>
   <i name="OFIELD_Q6_FAR">      0.00000000</i>
   <i name="OFIELD_A">      0.00000000</i>
  </separator>
 </parameters>
 <atominfo>
  <atoms>       8 </atoms>
  <types>       1 </types>
  <array name="atoms" >
   <dimension dim="1">ion</dimension>
   <field type="string">element</field>
   <field type="int">atomtype</field>
   <set>
    <rc><c>H </c><c>   1</c></rc>
    <rc><c>H </c><c>   1</c></rc>
    <rc><c>H </c><c>   1</c></rc>
    <rc><c>H </c><c>   1</c></rc>
    <rc><c>H </c><c>   1</c></rc>
    <rc><c>H </c><c>   1</c></rc>
    <rc><c>H </c><c>   1</c></rc>
    <rc><c>H </c><c>   1</c></rc>
   </set>
  </array>
  <array name="atomtypes" >
   <dimension dim="1">type</dimension>
   <field type="int">atomspertype</field>
   <field type="string">element</field>
   <field>mass</field>
   <field>valence</field>
   <field type="string">pseudopotential</field>
   <set>
    <rc><c>   8</c><c>H </c><c>      1.00000000</c><c>      1.00000000</c><c>  PAW_PBE H 15Jun2001                   </c></rc>
   </set>
  </array>
 </atominfo>
 <structure name="initialpos" >
  <crystal>
   <varray name="basis" >
    <v>      15.00000000       0.00000000       0.00000000 </v>
    <v>       0.00000000      15.00000000       0.00000000 </v>
    <v>       0.00000000       0.00000000      20.80000000 </v>
   </varray>
   <i name="volume">   4680.00000000 </i>
   <varray name="rec_basis" >
    <v>       0.06666667      -0.00000000       0.00000000 </v>
    <v>       0.00000000       0.06666667       0.00000000 </v>
    <v>      -0.00000000      -0.00000000       0.04807692 </v>
   </varray>
  </crystal>
  <varray name="positions" >
   <v>       0.00000000       0.00000000       0.00000000 </v>
   <v>       0.00000000       0.00000000       0.12500000 </v>
   <v>       0.00000000       0.00000000       0.25000000 </v>
   <v>       0.00000000       0.00000000       0.37500000 </v>
   <v>       0.00000000       0.00000000       0.50000000 </v>
   <v>       0.00000000       0.00000000       0.62500000 </v>
   <v>       0.00000000       0.00000000       0.75000000 </v>
   <v>       0.00000000       0.00000000       0.87500000 </v>
  </varray>
 </structure>
 <calculation>
  <scstep>
   <time name="dav">    0.74    0.74</time>
   <time name="total">    1.89    1.89</time>
   <energy>
    <i name="alphaZ">      0.03331511 </i>
    <i name="ewald">     14.44738616 </i>
    <i name="hartreedc">    -77.61638058 </i>
    <i name="XCdc">     15.29445178 </i>
    <i name="pawpsdc">     17.07221949 </i>
    <i name="pawaedc">    -17.14324176 </i>
    <i name="eentropy">     -0.03809647 </i>
    <i name="bandstr">    -32.18493079 </i>
    <i name="atom">     99.56620307 </i>
    <i name="e_fr_energy">     19.43092601 </i>
    <i name="e_wo_entrp">     19.46902247 </i>
    <i name="e_0_energy">     19.44997424 </i>
   </energy>
  </scstep>
  <scstep>
   <time name="dav">    0.98    0.98</time>
   <time name="total">    0.98    0.98</time>
   <energy>
    <i name="e_fr_energy">     -0.91650542 </i>
    <i name="e_wo_entrp">     -0.91648462 </i>
    <i name="e_0_energy">     -0.91649502 </i>
   </energy>
  </scstep>
  <scstep>
   <time name="dav">    0.82    0.82</time>
   <time name="total">    0.82    0.83</time>
   <energy>
    <i name="e_fr_energy">     -5.04333233 </i>
    <i name="e_wo_entrp">     -4.82060446 </i>
    <i name="e_0_energy">     -4.93196840 </i>
   </energy>
  </scstep>
  <scstep>
   <time name="dav">    0.85    0.86</time>
   <time name="total">    0.85    0.85</time>
   <energy>
    <i name="e_fr_energy">     -5.18648002 </i>
    <i name="e_wo_entrp">     -4.96080311 </i>
    <i name="e_0_energy">     -5.07364157 </i>
   </energy>
  </scstep>
  <scstep>
   <time name="dav">    0.85    0.85</time>
   <time name="total">    1.19    1.19</time>
   <energy>
    <i name="e_fr_energy">     -5.18778758 </i>
    <i name="e_wo_entrp">     -4.96211040 </i>
    <i name="e_0_energy">     -5.07494899 </i>
   </energy>
  </scstep>
  <scstep>
   <time name="dav">    0.74    0.74</time>
   <time name="total">    2.25    2.25</time>
   <energy>
    <i name="e_fr_energy">     -5.19557221 </i>
    <i name="e_wo_entrp">     -4.96989506 </i>
    <i name="e_0_energy">     -5.08273363 </i>
   </energy>
  </scstep>
  <scstep>
   <time name="dav">    0.74    0.74</time>
   <time name="total">    2.22    2.22</time>
   <energy>
    <i name="e_fr_energy">     -5.21946949 </i>
    <i name="e_wo_entrp">     -4.99379241 </i>
    <i name="e_0_energy">     -5.10663095 </i>
   </energy>
  </scstep>
  <scstep>
   <time name="dav">    0.82    0.82</time>
   <time name="total">    2.30    2.30</time>
   <energy>
    <i name="e_fr_energy">     -5.22100408 </i>
    <i name="e_wo_entrp">     -4.99532704 </i>
    <i name="e_0_energy">     -5.10816556 </i>
   </energy>
  </scstep>
  <scstep>
   <time name="dav">    0.87    0.87</time>
   <time name="total">    2.36    2.38</time>
   <energy>
    <i name="e_fr_energy">     -5.22114582 </i>
    <i name="e_wo_entrp">     -4.99546879 </i>
    <i name="e_0_energy">     -5.10830730 </i>
   </energy>
  </scstep>
  <scstep>
   <time name="dav">    0.83    0.83</time>
   <time name="total">    2.30    2.30</time>
   <energy>
    <i name="e_fr_energy">     -5.22118425 </i>
    <i name="e_wo_entrp">     -4.99550722 </i>
    <i name="e_0_energy">     -5.10834574 </i>
   </energy>
  </scstep>
  <scstep>
   <time name="dav">    0.84    0.84</time>
   <time name="total">    2.32    2.32</time>
   <energy>
    <i name="e_fr_energy">     -5.22124416 </i>
    <i name="e_wo_entrp">     -4.99556713 </i>
    <i name="e_0_energy">     -5.10840565 </i>
   </energy>
  </scstep>
  <scstep>
   <time name="dav">    0.67    0.67</time>
   <time name="total">    2.18    2.18</time>
   <energy>
    <i name="e_fr_energy">     -5.22126167 </i>
    <i name="e_wo_entrp">     -4.99558465 </i>
    <i name="e_0_energy">     -5.10842316 </i>
   </energy>
  </scstep>
  <scstep>
   <time name="dav">    0.58    0.58</time>
   <time name="total">    2.07    2.07</time>
   <energy>
    <i name="e_fr_energy">     -5.22127580 </i>
    <i name="e_wo_entrp">     -4.99559878 </i>
    <i name="e_0_energy">     -5.10843729 </i>
   </energy>
  </scstep>
  <scstep>
   <time name="dav">    0.58    0.58</time>
   <time name="total">    2.08    2.08</time>
   <energy>
    <i name="e_fr_energy">     -5.22127956 </i>
    <i name="e_wo_entrp">     -4.99560253 </i>
    <i name="e_0_energy">     -5.10844105 </i>
   </energy>
  </scstep>
  <scstep>
   <time name="dav">    0.66    0.66</time>
   <time name="total">    2.16    2.16</time>
   <energy>
    <i name="e_fr_energy">     -5.22128144 </i>
    <i name="e_wo_entrp">     -4.99560441 </i>
    <i name="e_0_energy">     -5.10844292 </i>
   </energy>
  </scstep>
  <scstep>
   <time name="dav">    0.56    0.56</time>
   <time name="total">    2.07    2.07</time>
   <energy>
    <i name="e_fr_energy">     -5.22128571 </i>
    <i name="e_wo_entrp">     -4.99560869 </i>
    <i name="e_0_energy">     -5.10844720 </i>
   </energy>
  </scstep>
  <scstep>
   <time name="dav">    0.58    0.60</time>
   <time name="total">    2.10    2.12</time>
   <energy>
    <i name="e_fr_energy">     -5.22128750 </i>
    <i name="e_wo_entrp">     -4.99561048 </i>
    <i name="e_0_energy">     -5.10844899 </i>
   </energy>
  </scstep>
  <scstep>
   <time name="dav">    0.56    0.56</time>
   <time name="total">    1.72    1.72</time>
   <energy>
    <i name="alphaZ">      0.03331511 </i>
    <i name="ewald">     14.44738616 </i>
    <i name="hartreedc">    -75.50947323 </i>
    <i name="XCdc">     14.79749128 </i>
    <i name="pawpsdc">     17.87227415 </i>
    <i name="pawaedc">    -17.92979179 </i>
    <i name="eentropy">     -0.22567703 </i>
    <i name="bandstr">    -58.27301596 </i>
    <i name="atom">     99.56620307 </i>
    <i name="e_fr_energy">     -5.22128823 </i>
    <i name="e_wo_entrp">     -4.99561120 </i>
    <i name="e_0_energy">     -5.10844971 </i>
   </energy>
  </scstep>
  <structure>
   <crystal>
    <varray name="basis" >
     <v>      15.00000000       0.00000000       0.00000000 </v>
     <v>       0.00000000      15.00000000       0.00000000 </v>
     <v>       0.00000000       0.00000000      20.80000000 </v>
    </varray>
    <i name="volume">   4680.00000000 </i>
    <varray name="rec_basis" >
     <v>       0.06666667      -0.00000000       0.00000000 </v>
     <v>       0.00000000       0.06666667       0.00000000 </v>
     <v>      -0.00000000      -0.00000000       0.04807692 </v>
    </varray>
   </crystal>
   <varray name="positions" >
    <v>       0.00000000       0.00000000       0.00000000 </v>
    <v>       0.00000000       0.00000000       0.12500000 </v>
    <v>       0.00000000       0.00000000       0.25000000 </v>
    <v>       0.00000000       0.00000000       0.37500000 </v>
    <v>       0.00000000       0.00000000       0.50000000 </v>
    <v>       0.00000000       0.00000000       0.62500000 </v>
    <v>       0.00000000       0.00000000       0.75000000 </v>
    <v>       0.00000000       0.00000000       0.87500000 </v>
   </varray>
  </structure>
  <varray name="forces" >
   <v>      -0.00000000       0.00000000      -0.00000000 </v>
   <v>       0.00000000       0.00000000      -0.00000000 </v>
   <v>       0.00000000      -0.00000000      -0.00000000 </v>
   <v>      -0.00000000       0.00000000       0.00000000 </v>
   <v>       0.00000000      -0.00000000      -0.00000000 </v>
   <v>      -0.00000000       0.00000000       0.00000000 </v>
   <v>       0.00000000       0.00000000       0.00000000 </v>
   <v>      -0.00000000      -0.00000000      -0.00000000 </v>
  </varray>
  <varray name="stress" >
   <v>      -0.29529205      -0.00000000      -0.00000000 </v>
   <v>      -0.00000000      -0.29529205      -0.00000000 </v>
   <v>      -0.00000000      -0.00000000      -5.70651221 </v>
  </varray>
  <energy>
   <i name="e_fr_energy">     -5.22128823 </i>
   <i name="e_wo_entrp">     -5.10844971 </i>
   <i name="e_0_energy">     -0.22567703 </i>
  </energy>
  <time name="totalsc">   36.03   36.07</time>
  <eigenvalues>
   <array>
    <dimension dim="1">band</dimension>
    <dimension dim="2">kpoint</dimension>
    <dimension dim="3">spin</dimension>
    <field>eigene</field>
    <field>occ</field>
    <set>
     <set comment="spin 1">
      <set comment="kpoint 1">
       <r>   -7.6469    1.0000 </r>
       <r>   -7.3956    1.0000 </r>
       <r>   -7.3956    1.0000 </r>
       <r>   -6.6984    0.5000 </r>
       <r>   -6.6984    0.5000 </r>
       <r>   -5.7985    0.0000 </r>
       <r>   -5.7985    0.0000 </r>
       <r>   -5.3207    0.0000 </r>
       <r>   -0.1200    0.0000 </r>
       <r>   -0.0611    0.0000 </r>
       <r>   -0.0611    0.0000 </r>
       <r>    0.2205    0.0000 </r>
      </set>
     </set>
     <set comment="spin 2">
      <set comment="kpoint 1">
       <r>   -7.6469    1.0000 </r>
       <r>   -7.3956    1.0000 </r>
       <r>   -7.3956    1.0000 </r>
       <r>   -6.6984    0.5000 </r>
       <r>   -6.6984    0.5000 </r>
       <r>   -5.7985    0.0000 </r>
       <r>   -5.7985    0.0000 </r>
       <r>   -5.3207    0.0000 </r>
       <r>   -0.1210    0.0000 </r>
       <r>   -0.0612    0.0000 </r>
       <r>   -0.0612    0.0000 </r>
       <r>    0.2195    0.0000 </r>
      </set>
     </set>
    </set>
   </array>
  </eigenvalues>
  <separator name="orbital magnetization" >
   <v name="MAGDIPOLOUT">      0.00000000      0.00000000      0.00000000</v>
  </separator>
  <dos>
   <i name="efermi">     -6.69844568 </i>
   <total>
    <array>
     <dimension dim="1">gridpoints</dimension>
     <dimension dim="2">spin</dimension>
     <field>energy</field>
     <field>total</field>
     <field>integrated</field>
     <set>
      <set comment="spin 1">
       <r>    -9.6469     0.0000     0.0000 </r>
       <r>    -9.6074     0.0000     0.0000 </r>
       <r>    -9.5678     0.0000     0.0000 </r>
       <r>    -9.5282     0.0000     0.0000 </r>
       <r>    -9.4887     0.0000     0.0000 </r>
       <r>    -9.4491     0.0000     0.0000 </r>
       <r>    -9.4096     0.0000     0.0000 </r>
       <r>    -9.3700     0.0000     0.0000 </r>
       <r>    -9.3305     0.0000     0.0000 </r>
       <r>    -9.2909     0.0000     0.0000 </r>
       <r>    -9.2513     0.0000     0.0000 </r>
       <r>    -9.2118     0.0000     0.0000 </r>
       <r>    -9.1722     0.0000     0.0000 </r>
       <r>    -9.1327     0.0000     0.0000 </r>
       <r>    -9.0931     0.0000     0.0000 </r>
       <r>    -9.0536     0.0000     0.0000 </r>
       <r>    -9.0140     0.0000     0.0000 </r>
       <r>    -8.9744     0.0000     0.0000 </r>
       <r>    -8.9349     0.0000     0.0000 </r>
       <r>    -8.8953     0.0000     0.0000 </r>
       <r>    -8.8558     0.0000     0.0000 </r>
       <r>    -8.8162     0.0000     0.0000 </r>
       <r>    -8.7766     0.0000     0.0000 </r>
       <r>    -8.7371     0.0000     0.0000 </r>
       <r>    -8.6975     0.0000     0.0000 </r>
       <r>    -8.6580     0.0000     0.0000 </r>
       <r>    -8.6184     0.0000     0.0000 </r>
       <r>    -8.5789     0.0000     0.0000 </r>
       <r>    -8.5393     0.0000     0.0000 </r>
       <r>    -8.4997     0.0000     0.0000 </r>
       <r>    -8.4602     0.0000     0.0000 </r>
       <r>    -8.4206     0.0000     0.0000 </r>
       <r>    -8.3811     0.0000     0.0000 </r>
       <r>    -8.3415     0.0000     0.0000 </r>
       <r>    -8.3020     0.0001     0.0000 </r>
       <r>    -8.2624     0.0002     0.0000 </r>
       <r>    -8.2228     0.0008     0.0000 </r>
       <r>    -8.1833     0.0026     0.0001 </r>
       <r>    -8.1437     0.0074     0.0004 </r>
       <r>    -8.1042     0.0198     0.0012 </r>
       <r>    -8.0646     0.0486     0.0031 </r>
       <r>    -8.0250     0.1105     0.0075 </r>
       <r>    -7.9855     0.2328     0.0167 </r>
       <r>    -7.9459     0.4541     0.0347 </r>
       <r>    -7.9064     0.8213     0.0672 </r>
       <r>    -7.8668     1.3784     0.1217 </r>
       <r>    -7.8273     2.1512     0.2068 </r>
       <r>    -7.7877     3.1308     0.3306 </r>
       <r>    -7.7481     4.2686     0.4995 </r>
       <r>    -7.7086     5.4879     0.7166 </r>
       <r>    -7.6690     6.7128     0.9821 </r>
       <r>    -7.6295     7.8974     1.2945 </r>
       <r>    -7.5899     9.0349     1.6520 </r>
       <r>    -7.5503    10.1340     2.0528 </r>
       <r>    -7.5108    11.1701     2.4947 </r>
       <r>    -7.4712    12.0445     2.9712 </r>
       <r>    -7.4317    12.5847     3.4690 </r>
       <r>    -7.3921    12.5991     3.9674 </r>
       <r>    -7.3526    11.9619     4.4406 </r>
       <r>    -7.3130    10.6832     4.8632 </r>
       <r>    -7.2734     8.9238     5.2162 </r>
       <r>    -7.2339     6.9466     5.4910 </r>
       <r>    -7.1943     5.0329     5.6901 </r>
       <r>    -7.1548     3.4051     5.8248 </r>
       <r>    -7.1152     2.1898     5.9114 </r>
       <r>    -7.0757     1.4277     5.9679 </r>
       <r>    -7.0361     1.1120     6.0119 </r>
       <r>    -6.9965     1.2305     6.0605 </r>
       <r>    -6.9570     1.7868     6.1312 </r>
       <r>    -6.9174     2.7908     6.2416 </r>
       <r>    -6.8779     4.2217     6.4086 </r>
       <r>    -6.8383     5.9810     6.6452 </r>
       <r>    -6.7987     7.8643     6.9563 </r>
       <r>    -6.7592     9.5751     7.3351 </r>
       <r>    -6.7196    10.7882     7.7618 </r>
       <r>    -6.6801    11.2466     8.2067 </r>
       <r>    -6.6405    10.8478     8.6358 </r>
       <r>    -6.6010     9.6806     9.0188 </r>
       <r>    -6.5614     7.9929     9.3350 </r>
       <r>    -6.5218     6.1059     9.5765 </r>
       <r>    -6.4823     4.3155     9.7472 </r>
       <r>    -6.4427     2.8222     9.8589 </r>
       <r>    -6.4032     1.7080     9.9264 </r>
       <r>    -6.3636     0.9580     9.9643 </r>
       <r>    -6.3241     0.5019     9.9842 </r>
       <r>    -6.2845     0.2567     9.9943 </r>
       <r>    -6.2449     0.1560    10.0005 </r>
       <r>    -6.2054     0.1655    10.0071 </r>
       <r>    -6.1658     0.2886    10.0185 </r>
       <r>    -6.1263     0.5661    10.0409 </r>
       <r>    -6.0867     1.0688    10.0831 </r>
       <r>    -6.0471     1.8801    10.1575 </r>
       <r>    -6.0076     3.0637    10.2787 </r>
       <r>    -5.9680     4.6200    10.4615 </r>
       <r>    -5.9285     6.4461    10.7165 </r>
       <r>    -5.8889     8.3218    11.0457 </r>
       <r>    -5.8494     9.9409    11.4389 </r>
       <r>    -5.8098    10.9903    11.8737 </r>
       <r>    -5.7702    11.2505    12.3187 </r>
       <r>    -5.7307    10.6768    12.7411 </r>
       <r>    -5.6911     9.4220    13.1138 </r>
       <r>    -5.6516     7.7907    13.4220 </r>
       <r>    -5.6120     6.1461    13.6651 </r>
       <r>    -5.5724     4.8088    13.8553 </r>
       <r>    -5.5329     3.9839    14.0129 </r>
       <r>    -5.4933     3.7294    14.1604 </r>
       <r>    -5.4538     3.9644    14.3173 </r>
       <r>    -5.4142     4.5035    14.4954 </r>
       <r>    -5.3747     5.1084    14.6975 </r>
       <r>    -5.3351     5.5476    14.9169 </r>
       <r>    -5.2955     5.6535    15.1406 </r>
       <r>    -5.2560     5.3608    15.3526 </r>
       <r>    -5.2164     4.7137    15.5391 </r>
       <r>    -5.1769     3.8380    15.6909 </r>
       <r>    -5.1373     2.8923    15.8053 </r>
       <r>    -5.0978     2.0168    15.8851 </r>
       <r>    -5.0582     1.3013    15.9366 </r>
       <r>    -5.0186     0.7768    15.9673 </r>
       <r>    -4.9791     0.4290    15.9843 </r>
       <r>    -4.9395     0.2192    15.9930 </r>
       <r>    -4.9000     0.1037    15.9971 </r>
       <r>    -4.8604     0.0453    15.9989 </r>
       <r>    -4.8208     0.0183    15.9996 </r>
       <r>    -4.7813     0.0069    15.9999 </r>
       <r>    -4.7417     0.0024    16.0000 </r>
       <r>    -4.7022     0.0008    16.0000 </r>
       <r>    -4.6626     0.0002    16.0000 </r>
       <r>    -4.6231     0.0001    16.0000 </r>
       <r>    -4.5835     0.0000    16.0000 </r>
       <r>    -4.5439     0.0000    16.0000 </r>
       <r>    -4.5044     0.0000    16.0000 </r>
       <r>    -4.4648     0.0000    16.0000 </r>
       <r>    -4.4253     0.0000    16.0000 </r>
       <r>    -4.3857     0.0000    16.0000 </r>
       <r>    -4.3461     0.0000    16.0000 </r>
       <r>    -4.3066     0.0000    16.0000 </r>
       <r>    -4.2670     0.0000    16.0000 </r>
       <r>    -4.2275     0.0000    16.0000 </r>
       <r>    -4.1879     0.0000    16.0000 </r>
       <r>    -4.1484     0.0000    16.0000 </r>
       <r>    -4.1088     0.0000    16.0000 </r>
       <r>    -4.0692     0.0000    16.0000 </r>
       <r>    -4.0297     0.0000    16.0000 </r>
       <r>    -3.9901     0.0000    16.0000 </r>
       <r>    -3.9506     0.0000    16.0000 </r>
       <r>    -3.9110     0.0000    16.0000 </r>
       <r>    -3.8715     0.0000    16.0000 </r>
       <r>    -3.8319     0.0000    16.0000 </r>
       <r>    -3.7923     0.0000    16.0000 </r>
       <r>    -3.7528     0.0000    16.0000 </r>
       <r>    -3.7132     0.0000    16.0000 </r>
       <r>    -3.6737     0.0000    16.0000 </r>
       <r>    -3.6341     0.0000    16.0000 </r>
       <r>    -3.5945     0.0000    16.0000 </r>
       <r>    -3.5550     0.0000    16.0000 </r>
       <r>    -3.5154     0.0000    16.0000 </r>
       <r>    -3.4759     0.0000    16.0000 </r>
       <r>    -3.4363     0.0000    16.0000 </r>
       <r>    -3.3968     0.0000    16.0000 </r>
       <r>    -3.3572     0.0000    16.0000 </r>
       <r>    -3.3176     0.0000    16.0000 </r>
       <r>    -3.2781     0.0000    16.0000 </r>
       <r>    -3.2385     0.0000    16.0000 </r>
       <r>    -3.1990     0.0000    16.0000 </r>
       <r>    -3.1594     0.0000    16.0000 </r>
       <r>    -3.1199     0.0000    16.0000 </r>
       <r>    -3.0803     0.0000    16.0000 </r>
       <r>    -3.0407     0.0000    16.0000 </r>
       <r>    -3.0012     0.0000    16.0000 </r>
       <r>    -2.9616     0.0000    16.0000 </r>
       <r>    -2.9221     0.0000    16.0000 </r>
       <r>    -2.8825     0.0000    16.0000 </r>
       <r>    -2.8429     0.0000    16.0000 </r>
       <r>    -2.8034     0.0000    16.0000 </r>
       <r>    -2.7638     0.0000    16.0000 </r>
       <r>    -2.7243     0.0000    16.0000 </r>
       <r>    -2.6847     0.0000    16.0000 </r>
       <r>    -2.6452     0.0000    16.0000 </r>
       <r>    -2.6056     0.0000    16.0000 </r>
       <r>    -2.5660     0.0000    16.0000 </r>
       <r>    -2.5265     0.0000    16.0000 </r>
       <r>    -2.4869     0.0000    16.0000 </r>
       <r>    -2.4474     0.0000    16.0000 </r>
       <r>    -2.4078     0.0000    16.0000 </r>
       <r>    -2.3682     0.0000    16.0000 </r>
       <r>    -2.3287     0.0000    16.0000 </r>
       <r>    -2.2891     0.0000    16.0000 </r>
       <r>    -2.2496     0.0000    16.0000 </r>
       <r>    -2.2100     0.0000    16.0000 </r>
       <r>    -2.1705     0.0000    16.0000 </r>
       <r>    -2.1309     0.0000    16.0000 </r>
       <r>    -2.0913     0.0000    16.0000 </r>
       <r>    -2.0518     0.0000    16.0000 </r>
       <r>    -2.0122     0.0000    16.0000 </r>
       <r>    -1.9727     0.0000    16.0000 </r>
       <r>    -1.9331     0.0000    16.0000 </r>
       <r>    -1.8936     0.0000    16.0000 </r>
       <r>    -1.8540     0.0000    16.0000 </r>
       <r>    -1.8144     0.0000    16.0000 </r>
       <r>    -1.7749     0.0000    16.0000 </r>
       <r>    -1.7353     0.0000    16.0000 </r>
       <r>    -1.6958     0.0000    16.0000 </r>
       <r>    -1.6562     0.0000    16.0000 </r>
       <r>    -1.6166     0.0000    16.0000 </r>
       <r>    -1.5771     0.0000    16.0000 </r>
       <r>    -1.5375     0.0000    16.0000 </r>
       <r>    -1.4980     0.0000    16.0000 </r>
       <r>    -1.4584     0.0000    16.0000 </r>
       <r>    -1.4189     0.0000    16.0000 </r>
       <r>    -1.3793     0.0000    16.0000 </r>
       <r>    -1.3397     0.0000    16.0000 </r>
       <r>    -1.3002     0.0000    16.0000 </r>
       <r>    -1.2606     0.0000    16.0000 </r>
       <r>    -1.2211     0.0000    16.0000 </r>
       <r>    -1.1815     0.0000    16.0000 </r>
       <r>    -1.1420     0.0000    16.0000 </r>
       <r>    -1.1024     0.0000    16.0000 </r>
       <r>    -1.0628     0.0000    16.0000 </r>
       <r>    -1.0233     0.0000    16.0000 </r>
       <r>    -0.9837     0.0000    16.0000 </r>
       <r>    -0.9442     0.0000    16.0000 </r>
       <r>    -0.9046     0.0000    16.0000 </r>
       <r>    -0.8650     0.0000    16.0000 </r>
       <r>    -0.8255     0.0000    16.0000 </r>
       <r>    -0.7859     0.0001    16.0000 </r>
       <r>    -0.7464     0.0002    16.0000 </r>
       <r>    -0.7068     0.0008    16.0000 </r>
       <r>    -0.6673     0.0026    16.0001 </r>
       <r>    -0.6277     0.0078    16.0005 </r>
       <r>    -0.5881     0.0219    16.0013 </r>
       <r>    -0.5486     0.0570    16.0036 </r>
       <r>    -0.5090     0.1377    16.0090 </r>
       <r>    -0.4695     0.3087    16.0212 </r>
       <r>    -0.4299     0.6423    16.0466 </r>
       <r>    -0.3903     1.2407    16.0957 </r>
       <r>    -0.3508     2.2249    16.1837 </r>
       <r>    -0.3112     3.7044    16.3303 </r>
       <r>    -0.2717     5.7272    16.5568 </r>
       <r>    -0.2321     8.2244    16.8822 </r>
       <r>    -0.1926    10.9744    17.3163 </r>
       <r>    -0.1530    13.6172    17.8550 </r>
       <r>    -0.1134    15.7330    18.4773 </r>
       <r>    -0.0739    16.9661    19.1485 </r>
       <r>    -0.0343    17.1465    19.8268 </r>
       <r>     0.0052    16.3513    20.4736 </r>
       <r>     0.0448    14.8697    21.0618 </r>
       <r>     0.0843    13.0876    21.5795 </r>
       <r>     0.1239    11.3438    22.0283 </r>
       <r>     0.1635     9.8281    22.4170 </r>
       <r>     0.2030     8.5604    22.7557 </r>
       <r>     0.2426     7.4467    23.0502 </r>
       <r>     0.2821     6.3699    23.3022 </r>
       <r>     0.3217     5.2635    23.5104 </r>
       <r>     0.3613     4.1386    23.6742 </r>
       <r>     0.4008     3.0632    23.7953 </r>
       <r>     0.4404     2.1193    23.8792 </r>
       <r>     0.4799     1.3647    23.9331 </r>
       <r>     0.5195     0.8159    23.9654 </r>
       <r>     0.5590     0.4522    23.9833 </r>
       <r>     0.5986     0.2321    23.9925 </r>
       <r>     0.6382     0.1103    23.9969 </r>
       <r>     0.6777     0.0485    23.9988 </r>
       <r>     0.7173     0.0198    23.9996 </r>
       <r>     0.7568     0.0074    23.9999 </r>
       <r>     0.7964     0.0026    24.0000 </r>
       <r>     0.8359     0.0008    24.0000 </r>
       <r>     0.8755     0.0002    24.0000 </r>
       <r>     0.9151     0.0001    24.0000 </r>
       <r>     0.9546     0.0000    24.0000 </r>
       <r>     0.9942     0.0000    24.0000 </r>
       <r>     1.0337     0.0000    24.0000 </r>
       <r>     1.0733     0.0000    24.0000 </r>
       <r>     1.1129     0.0000    24.0000 </r>
       <r>     1.1524     0.0000    24.0000 </r>
       <r>     1.1920     0.0000    24.0000 </r>
       <r>     1.2315     0.0000    24.0000 </r>
       <r>     1.2711     0.0000    24.0000 </r>
       <r>     1.3106     0.0000    24.0000 </r>
       <r>     1.3502     0.0000    24.0000 </r>
       <r>     1.3898     0.0000    24.0000 </r>
       <r>     1.4293     0.0000    24.0000 </r>
       <r>     1.4689     0.0000    24.0000 </r>
       <r>     1.5084     0.0000    24.0000 </r>
       <r>     1.5480     0.0000    24.0000 </r>
       <r>     1.5876     0.0000    24.0000 </r>
       <r>     1.6271     0.0000    24.0000 </r>
       <r>     1.6667     0.0000    24.0000 </r>
       <r>     1.7062     0.0000    24.0000 </r>
       <r>     1.7458     0.0000    24.0000 </r>
       <r>     1.7853     0.0000    24.0000 </r>
       <r>     1.8249     0.0000    24.0000 </r>
       <r>     1.8645     0.0000    24.0000 </r>
       <r>     1.9040     0.0000    24.0000 </r>
       <r>     1.9436     0.0000    24.0000 </r>
       <r>     1.9831     0.0000    24.0000 </r>
       <r>     2.0227     0.0000    24.0000 </r>
       <r>     2.0622     0.0000    24.0000 </r>
       <r>     2.1018     0.0000    24.0000 </r>
       <r>     2.1414     0.0000    24.0000 </r>
       <r>     2.1809     0.0000    24.0000 </r>
       <r>     2.2205     0.0000    24.0000 </r>
      </set>
      <set comment="spin 2">
       <r>    -9.6469     0.0000     0.0000 </r>
       <r>    -9.6074     0.0000     0.0000 </r>
       <r>    -9.5678     0.0000     0.0000 </r>
       <r>    -9.5282     0.0000     0.0000 </r>
       <r>    -9.4887     0.0000     0.0000 </r>
       <r>    -9.4491     0.0000     0.0000 </r>
       <r>    -9.4096     0.0000     0.0000 </r>
       <r>    -9.3700     0.0000     0.0000 </r>
       <r>    -9.3305     0.0000     0.0000 </r>
       <r>    -9.2909     0.0000     0.0000 </r>
       <r>    -9.2513     0.0000     0.0000 </r>
       <r>    -9.2118     0.0000     0.0000 </r>
       <r>    -9.1722     0.0000     0.0000 </r>
       <r>    -9.1327     0.0000     0.0000 </r>
       <r>    -9.0931     0.0000     0.0000 </r>
       <r>    -9.0536     0.0000     0.0000 </r>
       <r>    -9.0140     0.0000     0.0000 </r>
       <r>    -8.9744     0.0000     0.0000 </r>
       <r>    -8.9349     0.0000     0.0000 </r>
       <r>    -8.8953     0.0000     0.0000 </r>
       <r>    -8.8558     0.0000     0.0000 </r>
       <r>    -8.8162     0.0000     0.0000 </r>
       <r>    -8.7766     0.0000     0.0000 </r>
       <r>    -8.7371     0.0000     0.0000 </r>
       <r>    -8.6975     0.0000     0.0000 </r>
       <r>    -8.6580     0.0000     0.0000 </r>
       <r>    -8.6184     0.0000     0.0000 </r>
       <r>    -8.5789     0.0000     0.0000 </r>
       <r>    -8.5393     0.0000     0.0000 </r>
       <r>    -8.4997     0.0000     0.0000 </r>
       <r>    -8.4602     0.0000     0.0000 </r>
       <r>    -8.4206     0.0000     0.0000 </r>
       <r>    -8.3811     0.0000     0.0000 </r>
       <r>    -8.3415     0.0000     0.0000 </r>
       <r>    -8.3020     0.0001     0.0000 </r>
       <r>    -8.2624     0.0002     0.0000 </r>
       <r>    -8.2228     0.0008     0.0000 </r>
       <r>    -8.1833     0.0026     0.0001 </r>
       <r>    -8.1437     0.0074     0.0004 </r>
       <r>    -8.1042     0.0198     0.0012 </r>
       <r>    -8.0646     0.0486     0.0031 </r>
       <r>    -8.0250     0.1105     0.0075 </r>
       <r>    -7.9855     0.2328     0.0167 </r>
       <r>    -7.9459     0.4541     0.0347 </r>
       <r>    -7.9064     0.8213     0.0672 </r>
       <r>    -7.8668     1.3784     0.1217 </r>
       <r>    -7.8273     2.1512     0.2068 </r>
       <r>    -7.7877     3.1308     0.3306 </r>
       <r>    -7.7481     4.2686     0.4995 </r>
       <r>    -7.7086     5.4880     0.7166 </r>
       <r>    -7.6690     6.7129     0.9821 </r>
       <r>    -7.6295     7.8974     1.2946 </r>
       <r>    -7.5899     9.0349     1.6520 </r>
       <r>    -7.5503    10.1340     2.0528 </r>
       <r>    -7.5108    11.1701     2.4947 </r>
       <r>    -7.4712    12.0445     2.9712 </r>
       <r>    -7.4317    12.5847     3.4690 </r>
       <r>    -7.3921    12.5991     3.9674 </r>
       <r>    -7.3526    11.9619     4.4406 </r>
       <r>    -7.3130    10.6832     4.8632 </r>
       <r>    -7.2734     8.9238     5.2162 </r>
       <r>    -7.2339     6.9466     5.4910 </r>
       <r>    -7.1943     5.0329     5.6901 </r>
       <r>    -7.1548     3.4050     5.8248 </r>
       <r>    -7.1152     2.1898     5.9114 </r>
       <r>    -7.0757     1.4277     5.9679 </r>
       <r>    -7.0361     1.1120     6.0119 </r>
       <r>    -6.9965     1.2305     6.0605 </r>
       <r>    -6.9570     1.7868     6.1312 </r>
       <r>    -6.9174     2.7909     6.2416 </r>
       <r>    -6.8779     4.2217     6.4086 </r>
       <r>    -6.8383     5.9810     6.6452 </r>
       <r>    -6.7987     7.8644     6.9563 </r>
       <r>    -6.7592     9.5751     7.3351 </r>
       <r>    -6.7196    10.7882     7.7618 </r>
       <r>    -6.6801    11.2466     8.2067 </r>
       <r>    -6.6405    10.8478     8.6359 </r>
       <r>    -6.6010     9.6806     9.0188 </r>
       <r>    -6.5614     7.9929     9.3350 </r>
       <r>    -6.5218     6.1058     9.5765 </r>
       <r>    -6.4823     4.3155     9.7472 </r>
       <r>    -6.4427     2.8221     9.8589 </r>
       <r>    -6.4032     1.7080     9.9264 </r>
       <r>    -6.3636     0.9580     9.9643 </r>
       <r>    -6.3241     0.5019     9.9842 </r>
       <r>    -6.2845     0.2567     9.9943 </r>
       <r>    -6.2449     0.1560    10.0005 </r>
       <r>    -6.2054     0.1655    10.0071 </r>
       <r>    -6.1658     0.2886    10.0185 </r>
       <r>    -6.1263     0.5661    10.0409 </r>
       <r>    -6.0867     1.0688    10.0831 </r>
       <r>    -6.0471     1.8802    10.1575 </r>
       <r>    -6.0076     3.0638    10.2787 </r>
       <r>    -5.9680     4.6201    10.4615 </r>
       <r>    -5.9285     6.4462    10.7165 </r>
       <r>    -5.8889     8.3218    11.0457 </r>
       <r>    -5.8494     9.9409    11.4389 </r>
       <r>    -5.8098    10.9903    11.8737 </r>
       <r>    -5.7702    11.2505    12.3187 </r>
       <r>    -5.7307    10.6768    12.7411 </r>
       <r>    -5.6911     9.4220    13.1138 </r>
       <r>    -5.6516     7.7907    13.4220 </r>
       <r>    -5.6120     6.1460    13.6651 </r>
       <r>    -5.5724     4.8088    13.8553 </r>
       <r>    -5.5329     3.9839    14.0129 </r>
       <r>    -5.4933     3.7294    14.1604 </r>
       <r>    -5.4538     3.9644    14.3173 </r>
       <r>    -5.4142     4.5035    14.4954 </r>
       <r>    -5.3747     5.1084    14.6975 </r>
       <r>    -5.3351     5.5476    14.9169 </r>
       <r>    -5.2955     5.6535    15.1406 </r>
       <r>    -5.2560     5.3608    15.3526 </r>
       <r>    -5.2164     4.7136    15.5391 </r>
       <r>    -5.1769     3.8380    15.6909 </r>
       <r>    -5.1373     2.8922    15.8053 </r>
       <r>    -5.0978     2.0168    15.8851 </r>
       <r>    -5.0582     1.3013    15.9366 </r>
       <r>    -5.0186     0.7768    15.9673 </r>
       <r>    -4.9791     0.4290    15.9843 </r>
       <r>    -4.9395     0.2192    15.9930 </r>
       <r>    -4.9000     0.1036    15.9971 </r>
       <r>    -4.8604     0.0453    15.9989 </r>
       <r>    -4.8208     0.0183    15.9996 </r>
       <r>    -4.7813     0.0069    15.9999 </r>
       <r>    -4.7417     0.0024    16.0000 </r>
       <r>    -4.7022     0.0008    16.0000 </r>
       <r>    -4.6626     0.0002    16.0000 </r>
       <r>    -4.6231     0.0001    16.0000 </r>
       <r>    -4.5835     0.0000    16.0000 </r>
       <r>    -4.5439     0.0000    16.0000 </r>
       <r>    -4.5044     0.0000    16.0000 </r>
       <r>    -4.4648     0.0000    16.0000 </r>
       <r>    -4.4253     0.0000    16.0000 </r>
       <r>    -4.3857     0.0000    16.0000 </r>
       <r>    -4.3461     0.0000    16.0000 </r>
       <r>    -4.3066     0.0000    16.0000 </r>
       <r>    -4.2670     0.0000    16.0000 </r>
       <r>    -4.2275     0.0000    16.0000 </r>
       <r>    -4.1879     0.0000    16.0000 </r>
       <r>    -4.1484     0.0000    16.0000 </r>
       <r>    -4.1088     0.0000    16.0000 </r>
       <r>    -4.0692     0.0000    16.0000 </r>
       <r>    -4.0297     0.0000    16.0000 </r>
       <r>    -3.9901     0.0000    16.0000 </r>
       <r>    -3.9506     0.0000    16.0000 </r>
       <r>    -3.9110     0.0000    16.0000 </r>
       <r>    -3.8715     0.0000    16.0000 </r>
       <r>    -3.8319     0.0000    16.0000 </r>
       <r>    -3.7923     0.0000    16.0000 </r>
       <r>    -3.7528     0.0000    16.0000 </r>
       <r>    -3.7132     0.0000    16.0000 </r>
       <r>    -3.6737     0.0000    16.0000 </r>
       <r>    -3.6341     0.0000    16.0000 </r>
       <r>    -3.5945     0.0000    16.0000 </r>
       <r>    -3.5550     0.0000    16.0000 </r>
       <r>    -3.5154     0.0000    16.0000 </r>
       <r>    -3.4759     0.0000    16.0000 </r>
       <r>    -3.4363     0.0000    16.0000 </r>
       <r>    -3.3968     0.0000    16.0000 </r>
       <r>    -3.3572     0.0000    16.0000 </r>
       <r>    -3.3176     0.0000    16.0000 </r>
       <r>    -3.2781     0.0000    16.0000 </r>
       <r>    -3.2385     0.0000    16.0000 </r>
       <r>    -3.1990     0.0000    16.0000 </r>
       <r>    -3.1594     0.0000    16.0000 </r>
       <r>    -3.1199     0.0000    16.0000 </r>
       <r>    -3.0803     0.0000    16.0000 </r>
       <r>    -3.0407     0.0000    16.0000 </r>
       <r>    -3.0012     0.0000    16.0000 </r>
       <r>    -2.9616     0.0000    16.0000 </r>
       <r>    -2.9221     0.0000    16.0000 </r>
       <r>    -2.8825     0.0000    16.0000 </r>
       <r>    -2.8429     0.0000    16.0000 </r>
       <r>    -2.8034     0.0000    16.0000 </r>
       <r>    -2.7638     0.0000    16.0000 </r>
       <r>    -2.7243     0.0000    16.0000 </r>
       <r>    -2.6847     0.0000    16.0000 </r>
       <r>    -2.6452     0.0000    16.0000 </r>
       <r>    -2.6056     0.0000    16.0000 </r>
       <r>    -2.5660     0.0000    16.0000 </r>
       <r>    -2.5265     0.0000    16.0000 </r>
       <r>    -2.4869     0.0000    16.0000 </r>
       <r>    -2.4474     0.0000    16.0000 </r>
       <r>    -2.4078     0.0000    16.0000 </r>
       <r>    -2.3682     0.0000    16.0000 </r>
       <r>    -2.3287     0.0000    16.0000 </r>
       <r>    -2.2891     0.0000    16.0000 </r>
       <r>    -2.2496     0.0000    16.0000 </r>
       <r>    -2.2100     0.0000    16.0000 </r>
       <r>    -2.1705     0.0000    16.0000 </r>
       <r>    -2.1309     0.0000    16.0000 </r>
       <r>    -2.0913     0.0000    16.0000 </r>
       <r>    -2.0518     0.0000    16.0000 </r>
       <r>    -2.0122     0.0000    16.0000 </r>
       <r>    -1.9727     0.0000    16.0000 </r>
       <r>    -1.9331     0.0000    16.0000 </r>
       <r>    -1.8936     0.0000    16.0000 </r>
       <r>    -1.8540     0.0000    16.0000 </r>
       <r>    -1.8144     0.0000    16.0000 </r>
       <r>    -1.7749     0.0000    16.0000 </r>
       <r>    -1.7353     0.0000    16.0000 </r>
       <r>    -1.6958     0.0000    16.0000 </r>
       <r>    -1.6562     0.0000    16.0000 </r>
       <r>    -1.6166     0.0000    16.0000 </r>
       <r>    -1.5771     0.0000    16.0000 </r>
       <r>    -1.5375     0.0000    16.0000 </r>
       <r>    -1.4980     0.0000    16.0000 </r>
       <r>    -1.4584     0.0000    16.0000 </r>
       <r>    -1.4189     0.0000    16.0000 </r>
       <r>    -1.3793     0.0000    16.0000 </r>
       <r>    -1.3397     0.0000    16.0000 </r>
       <r>    -1.3002     0.0000    16.0000 </r>
       <r>    -1.2606     0.0000    16.0000 </r>
       <r>    -1.2211     0.0000    16.0000 </r>
       <r>    -1.1815     0.0000    16.0000 </r>
       <r>    -1.1420     0.0000    16.0000 </r>
       <r>    -1.1024     0.0000    16.0000 </r>
       <r>    -1.0628     0.0000    16.0000 </r>
       <r>    -1.0233     0.0000    16.0000 </r>
       <r>    -0.9837     0.0000    16.0000 </r>
       <r>    -0.9442     0.0000    16.0000 </r>
       <r>    -0.9046     0.0000    16.0000 </r>
       <r>    -0.8650     0.0000    16.0000 </r>
       <r>    -0.8255     0.0000    16.0000 </r>
       <r>    -0.7859     0.0001    16.0000 </r>
       <r>    -0.7464     0.0002    16.0000 </r>
       <r>    -0.7068     0.0008    16.0000 </r>
       <r>    -0.6673     0.0026    16.0001 </r>
       <r>    -0.6277     0.0080    16.0005 </r>
       <r>    -0.5881     0.0223    16.0013 </r>
       <r>    -0.5486     0.0579    16.0036 </r>
       <r>    -0.5090     0.1396    16.0092 </r>
       <r>    -0.4695     0.3124    16.0215 </r>
       <r>    -0.4299     0.6490    16.0472 </r>
       <r>    -0.3903     1.2518    16.0967 </r>
       <r>    -0.3508     2.2415    16.1854 </r>
       <r>    -0.3112     3.7268    16.3328 </r>
       <r>    -0.2717     5.7546    16.5604 </r>
       <r>    -0.2321     8.2541    16.8870 </r>
       <r>    -0.1926    11.0023    17.3222 </r>
       <r>    -0.1530    13.6391    17.8617 </r>
       <r>    -0.1134    15.7456    18.4846 </r>
       <r>    -0.0739    16.9687    19.1558 </r>
       <r>    -0.0343    17.1412    19.8339 </r>
       <r>     0.0052    16.3421    20.4804 </r>
       <r>     0.0448    14.8611    21.0682 </r>
       <r>     0.0843    13.0823    21.5857 </r>
       <r>     0.1239    11.3420    22.0344 </r>
       <r>     0.1635     9.8274    22.4232 </r>
       <r>     0.2030     8.5572    22.7617 </r>
       <r>     0.2426     7.4380    23.0559 </r>
       <r>     0.2821     6.3545    23.3073 </r>
       <r>     0.3217     5.2427    23.5147 </r>
       <r>     0.3613     4.1151    23.6774 </r>
       <r>     0.4008     3.0402    23.7977 </r>
       <r>     0.4404     2.0994    23.8808 </r>
       <r>     0.4799     1.3494    23.9341 </r>
       <r>     0.5195     0.8052    23.9660 </r>
       <r>     0.5590     0.4454    23.9836 </r>
       <r>     0.5986     0.2282    23.9926 </r>
       <r>     0.6382     0.1083    23.9969 </r>
       <r>     0.6777     0.0475    23.9988 </r>
       <r>     0.7173     0.0193    23.9996 </r>
       <r>     0.7568     0.0073    23.9999 </r>
       <r>     0.7964     0.0025    24.0000 </r>
       <r>     0.8359     0.0008    24.0000 </r>
       <r>     0.8755     0.0002    24.0000 </r>
       <r>     0.9151     0.0001    24.0000 </r>
       <r>     0.9546     0.0000    24.0000 </r>
       <r>     0.9942     0.0000    24.0000 </r>
       <r>     1.0337     0.0000    24.0000 </r>
       <r>     1.0733     0.0000    24.0000 </r>
       <r>     1.1129     0.0000    24.0000 </r>
       <r>     1.1524     0.0000    24.0000 </r>
       <r>     1.1920     0.0000    24.0000 </r>
       <r>     1.2315     0.0000    24.0000 </r>
       <r>     1.2711     0.0000    24.0000 </r>
       <r>     1.3106     0.0000    24.0000 </r>
       <r>     1.3502     0.0000    24.0000 </r>
       <r>     1.3898     0.0000    24.0000 </r>
       <r>     1.4293     0.0000    24.0000 </r>
       <r>     1.4689     0.0000    24.0000 </r>
       <r>     1.5084     0.0000    24.0000 </r>
       <r>     1.5480     0.0000    24.0000 </r>
       <r>     1.5876     0.0000    24.0000 </r>
       <r>     1.6271     0.0000    24.0000 </r>
       <r>     1.6667     0.0000    24.0000 </r>
       <r>     1.7062     0.0000    24.0000 </r>
       <r>     1.7458     0.0000    24.0000 </r>
       <r>     1.7853     0.0000    24.0000 </r>
       <r>     1.8249     0.0000    24.0000 </r>
       <r>     1.8645     0.0000    24.0000 </r>
       <r>     1.9040     0.0000    24.0000 </r>
       <r>     1.9436     0.0000    24.0000 </r>
       <r>     1.9831     0.0000    24.0000 </r>
       <r>     2.0227     0.0000    24.0000 </r>
       <r>     2.0622     0.0000    24.0000 </r>
       <r>     2.1018     0.0000    24.0000 </r>
       <r>     2.1414     0.0000    24.0000 </r>
       <r>     2.1809     0.0000    24.0000 </r>
       <r>     2.2205     0.0000    24.0000 </r>
      </set>
     </set>
    </array>
   </total>
  </dos>
 </calculation>
 <structure name="finalpos" >
  <crystal>
   <varray name="basis" >
    <v>      15.00000000       0.00000000       0.00000000 </v>
    <v>       0.00000000      15.00000000       0.00000000 </v>
    <v>       0.00000000       0.00000000      20.80000000 </v>
   </varray>
   <i name="volume">   4680.00000000 </i>
   <varray name="rec_basis" >
    <v>       0.06666667      -0.00000000       0.00000000 </v>
    <v>       0.00000000       0.06666667       0.00000000 </v>
    <v>      -0.00000000      -0.00000000       0.04807692 </v>
   </varray>
  </crystal>
  <varray name="positions" >
   <v>       0.00000000       0.00000000       0.00000000 </v>
   <v>       0.00000000       0.00000000       0.12500000 </v>
   <v>       0.00000000       0.00000000       0.25000000 </v>
   <v>       0.00000000       0.00000000       0.37500000 </v>
   <v>       0.00000000       0.00000000       0.50000000 </v>
   <v>       0.00000000       0.00000000       0.62500000 </v>
   <v>       0.00000000       0.00000000       0.75000000 </v>
   <v>       0.00000000       0.00000000       0.87500000 </v>
  </varray>
 </structure>
</modeling>
