   8   8   0   0
  0.6750000E+03  0.1500000E-08  0.1500000E-08  0.2400000E-08  0.5000000E-15
  1.000000000000000E-004
  CAR 
 unknown system                          
      2.12133853     -9.23985706  301     -6.66535912      1.00000000
     -9.240  0.0000E+00  0.0000E+00  0.0000E+00  0.0000E+00
     -9.202  0.0000E+00  0.0000E+00  0.0000E+00  0.0000E+00
     -9.164  0.0000E+00  0.0000E+00  0.0000E+00  0.0000E+00
     -9.126  0.0000E+00  0.0000E+00  0.0000E+00  0.0000E+00
     -9.088  0.0000E+00  0.0000E+00  0.0000E+00  0.0000E+00
     -9.051  0.0000E+00  0.0000E+00  0.0000E+00  0.0000E+00
     -9.013  0.0000E+00  0.0000E+00  0.0000E+00  0.0000E+00
     -8.975  0.0000E+00  0.0000E+00  0.0000E+00  0.0000E+00
     -8.937  0.0000E+00  0.0000E+00  0.0000E+00  0.0000E+00
     -8.899  0.0000E+00  0.0000E+00  0.0000E+00  0.0000E+00
     -8.861  0.0000E+00  0.0000E+00  0.0000E+00  0.0000E+00
     -8.823  0.0000E+00  0.0000E+00  0.0000E+00  0.0000E+00
     -8.785  0.0000E+00  0.0000E+00  0.0000E+00  0.0000E+00
     -8.748  0.0000E+00  0.0000E+00  0.0000E+00  0.0000E+00
     -8.710  0.0000E+00  0.0000E+00  0.0000E+00  0.0000E+00
     -8.672  0.0000E+00  0.0000E+00  0.0000E+00  0.0000E+00
     -8.634  0.0000E+00  0.0000E+00  0.0000E+00  0.0000E+00
     -8.596  0.0000E+00  0.0000E+00  0.0000E+00  0.0000E+00
     -8.558  0.0000E+00  0.0000E+00  0.0000E+00  0.0000E+00
     -8.520  0.0000E+00  0.0000E+00  0.0000E+00  0.0000E+00
     -8.482  0.0000E+00  0.0000E+00  0.0000E+00  0.0000E+00
     -8.445  0.0000E+00  0.0000E+00  0.0000E+00  0.0000E+00
     -8.407  0.2932E-14  0.2932E-14  0.1110E-15  0.1110E-15
     -8.369  0.3518E-13  0.3518E-13  0.1443E-14  0.1443E-14
     -8.331  0.2814E-12  0.2814E-12  0.1210E-13  0.1210E-13
     -8.293  0.2193E-11  0.2193E-11  0.9515E-13  0.9515E-13
     -8.255  0.1594E-10  0.1594E-10  0.6989E-12  0.6989E-12
     -8.217  0.1079E-09  0.1079E-09  0.4784E-11  0.4784E-11
     -8.179  0.6796E-09  0.6796E-09  0.3052E-10  0.3052E-10
     -8.142  0.3987E-08  0.3987E-08  0.1815E-09  0.1815E-09
     -8.104  0.2178E-07  0.2178E-07  0.1007E-08  0.1007E-08
     -8.066  0.1108E-06  0.1108E-06  0.5204E-08  0.5204E-08
     -8.028  0.5252E-06  0.5252E-06  0.2509E-07  0.2509E-07
     -7.990  0.2317E-05  0.2317E-05  0.1129E-06  0.1129E-06
     -7.952  0.9525E-05  0.9525E-05  0.4736E-06  0.4736E-06
     -7.914  0.3647E-04  0.3646E-04  0.1855E-05  0.1855E-05
     -7.877  0.1301E-03  0.1301E-03  0.6780E-05  0.6780E-05
     -7.839  0.4322E-03  0.4322E-03  0.2315E-04  0.2315E-04
     -7.801  0.1338E-02  0.1338E-02  0.7383E-04  0.7383E-04
     -7.763  0.3863E-02  0.3863E-02  0.2201E-03  0.2201E-03
     -7.725  0.1040E-01  0.1040E-01  0.6139E-03  0.6139E-03
     -7.687  0.2611E-01  0.2611E-01  0.1603E-02  0.1603E-02
     -7.649  0.6120E-01  0.6120E-01  0.3921E-02  0.3921E-02
     -7.611  0.1340E+00  0.1340E+00  0.8996E-02  0.8996E-02
     -7.574  0.2744E+00  0.2744E+00  0.1939E-01  0.1939E-01
     -7.536  0.5260E+00  0.5260E+00  0.3931E-01  0.3931E-01
     -7.498  0.9455E+00  0.9455E+00  0.7511E-01  0.7511E-01
     -7.460  0.1596E+01  0.1596E+01  0.1356E+00  0.1356E+00
     -7.422  0.2537E+01  0.2537E+01  0.2316E+00  0.2316E+00
     -7.384  0.3804E+01  0.3804E+01  0.3757E+00  0.3757E+00
     -7.346  0.5394E+01  0.5394E+01  0.5800E+00  0.5800E+00
     -7.308  0.7250E+01  0.7250E+01  0.8545E+00  0.8545E+00
     -7.271  0.9254E+01  0.9254E+01  0.1205E+01  0.1205E+01
     -7.233  0.1123E+02  0.1123E+02  0.1630E+01  0.1630E+01
     -7.195  0.1297E+02  0.1297E+02  0.2121E+01  0.2121E+01
     -7.157  0.1424E+02  0.1424E+02  0.2661E+01  0.2661E+01
     -7.119  0.1487E+02  0.1487E+02  0.3224E+01  0.3224E+01
     -7.081  0.1475E+02  0.1475E+02  0.3783E+01  0.3783E+01
     -7.043  0.1391E+02  0.1391E+02  0.4309E+01  0.4309E+01
     -7.005  0.1252E+02  0.1252E+02  0.4783E+01  0.4783E+01
     -6.968  0.1087E+02  0.1087E+02  0.5195E+01  0.5195E+01
     -6.930  0.9333E+01  0.9333E+01  0.5549E+01  0.5549E+01
     -6.892  0.8225E+01  0.8225E+01  0.5860E+01  0.5860E+01
     -6.854  0.7768E+01  0.7768E+01  0.6154E+01  0.6154E+01
     -6.816  0.8011E+01  0.8011E+01  0.6458E+01  0.6458E+01
     -6.778  0.8815E+01  0.8815E+01  0.6792E+01  0.6792E+01
     -6.740  0.9885E+01  0.9885E+01  0.7166E+01  0.7166E+01
     -6.703  0.1085E+02  0.1085E+02  0.7577E+01  0.7577E+01
     -6.665  0.1139E+02  0.1139E+02  0.8008E+01  0.8008E+01
     -6.627  0.1127E+02  0.1127E+02  0.8435E+01  0.8435E+01
     -6.589  0.1047E+02  0.1047E+02  0.8831E+01  0.8831E+01
     -6.551  0.9156E+01  0.9156E+01  0.9178E+01  0.9178E+01
     -6.513  0.7607E+01  0.7607E+01  0.9466E+01  0.9466E+01
     -6.475  0.6163E+01  0.6163E+01  0.9700E+01  0.9700E+01
     -6.437  0.5129E+01  0.5129E+01  0.9894E+01  0.9894E+01
     -6.400  0.4720E+01  0.4720E+01  0.1007E+02  0.1007E+02
     -6.362  0.5021E+01  0.5021E+01  0.1026E+02  0.1026E+02
     -6.324  0.5988E+01  0.5988E+01  0.1049E+02  0.1049E+02
     -6.286  0.7448E+01  0.7448E+01  0.1077E+02  0.1077E+02
     -6.248  0.9133E+01  0.9133E+01  0.1112E+02  0.1112E+02
     -6.210  0.1074E+02  0.1074E+02  0.1152E+02  0.1152E+02
     -6.172  0.1198E+02  0.1198E+02  0.1198E+02  0.1198E+02
     -6.134  0.1267E+02  0.1267E+02  0.1246E+02  0.1246E+02
     -6.097  0.1277E+02  0.1277E+02  0.1294E+02  0.1294E+02
     -6.059  0.1236E+02  0.1236E+02  0.1341E+02  0.1341E+02
     -6.021  0.1159E+02  0.1159E+02  0.1385E+02  0.1385E+02
     -5.983  0.1060E+02  0.1060E+02  0.1425E+02  0.1425E+02
     -5.945  0.9517E+01  0.9517E+01  0.1461E+02  0.1461E+02
     -5.907  0.8379E+01  0.8379E+01  0.1493E+02  0.1493E+02
     -5.869  0.7197E+01  0.7197E+01  0.1520E+02  0.1520E+02
     -5.831  0.5982E+01  0.5982E+01  0.1543E+02  0.1543E+02
     -5.794  0.4767E+01  0.4767E+01  0.1561E+02  0.1561E+02
     -5.756  0.3612E+01  0.3612E+01  0.1574E+02  0.1574E+02
     -5.718  0.2585E+01  0.2585E+01  0.1584E+02  0.1584E+02
     -5.680  0.1740E+01  0.1740E+01  0.1591E+02  0.1591E+02
     -5.642  0.1097E+01  0.1097E+01  0.1595E+02  0.1595E+02
     -5.604  0.6469E+00  0.6469E+00  0.1597E+02  0.1597E+02
     -5.566  0.3561E+00  0.3561E+00  0.1599E+02  0.1599E+02
     -5.529  0.1828E+00  0.1828E+00  0.1599E+02  0.1599E+02
     -5.491  0.8751E-01  0.8751E-01  0.1600E+02  0.1600E+02
     -5.453  0.3902E-01  0.3902E-01  0.1600E+02  0.1600E+02
     -5.415  0.1621E-01  0.1621E-01  0.1600E+02  0.1600E+02
     -5.377  0.6274E-02  0.6274E-02  0.1600E+02  0.1600E+02
     -5.339  0.2261E-02  0.2261E-02  0.1600E+02  0.1600E+02
     -5.301  0.7588E-03  0.7588E-03  0.1600E+02  0.1600E+02
     -5.263  0.2372E-03  0.2372E-03  0.1600E+02  0.1600E+02
     -5.226  0.6903E-04  0.6903E-04  0.1600E+02  0.1600E+02
     -5.188  0.1871E-04  0.1871E-04  0.1600E+02  0.1600E+02
     -5.150  0.4721E-05  0.4721E-05  0.1600E+02  0.1600E+02
     -5.112  0.1110E-05  0.1110E-05  0.1600E+02  0.1600E+02
     -5.074  0.2428E-06  0.2428E-06  0.1600E+02  0.1600E+02
     -5.036  0.4947E-07  0.4947E-07  0.1600E+02  0.1600E+02
     -4.998  0.9386E-08  0.9386E-08  0.1600E+02  0.1600E+02
     -4.960  0.1658E-08  0.1658E-08  0.1600E+02  0.1600E+02
     -4.923  0.2728E-09  0.2728E-09  0.1600E+02  0.1600E+02
     -4.885  0.4178E-10  0.4179E-10  0.1600E+02  0.1600E+02
     -4.847  0.5957E-11  0.5957E-11  0.1600E+02  0.1600E+02
     -4.809  0.7915E-12  0.7915E-12  0.1600E+02  0.1600E+02
     -4.771  0.9968E-13  0.9968E-13  0.1600E+02  0.1600E+02
     -4.733  0.1173E-13  0.1173E-13  0.1600E+02  0.1600E+02
     -4.695  0.0000E+00  0.0000E+00  0.1600E+02  0.1600E+02
     -4.658  0.0000E+00  0.0000E+00  0.1600E+02  0.1600E+02
     -4.620  0.0000E+00  0.0000E+00  0.1600E+02  0.1600E+02
     -4.582  0.0000E+00  0.0000E+00  0.1600E+02  0.1600E+02
     -4.544  0.0000E+00  0.0000E+00  0.1600E+02  0.1600E+02
     -4.506  0.0000E+00  0.0000E+00  0.1600E+02  0.1600E+02
     -4.468  0.0000E+00  0.0000E+00  0.1600E+02  0.1600E+02
     -4.430  0.0000E+00  0.0000E+00  0.1600E+02  0.1600E+02
     -4.392  0.0000E+00  0.0000E+00  0.1600E+02  0.1600E+02
     -4.355  0.0000E+00  0.0000E+00  0.1600E+02  0.1600E+02
     -4.317  0.0000E+00  0.0000E+00  0.1600E+02  0.1600E+02
     -4.279  0.0000E+00  0.0000E+00  0.1600E+02  0.1600E+02
     -4.241  0.0000E+00  0.0000E+00  0.1600E+02  0.1600E+02
     -4.203  0.0000E+00  0.0000E+00  0.1600E+02  0.1600E+02
     -4.165  0.0000E+00  0.0000E+00  0.1600E+02  0.1600E+02
     -4.127  0.0000E+00  0.0000E+00  0.1600E+02  0.1600E+02
     -4.089  0.0000E+00  0.0000E+00  0.1600E+02  0.1600E+02
     -4.052  0.0000E+00  0.0000E+00  0.1600E+02  0.1600E+02
     -4.014  0.0000E+00  0.0000E+00  0.1600E+02  0.1600E+02
     -3.976  0.0000E+00  0.0000E+00  0.1600E+02  0.1600E+02
     -3.938  0.0000E+00  0.0000E+00  0.1600E+02  0.1600E+02
     -3.900  0.0000E+00  0.0000E+00  0.1600E+02  0.1600E+02
     -3.862  0.0000E+00  0.0000E+00  0.1600E+02  0.1600E+02
     -3.824  0.0000E+00  0.0000E+00  0.1600E+02  0.1600E+02
     -3.786  0.0000E+00  0.0000E+00  0.1600E+02  0.1600E+02
     -3.749  0.0000E+00  0.0000E+00  0.1600E+02  0.1600E+02
     -3.711  0.0000E+00  0.0000E+00  0.1600E+02  0.1600E+02
     -3.673  0.0000E+00  0.0000E+00  0.1600E+02  0.1600E+02
     -3.635  0.0000E+00  0.0000E+00  0.1600E+02  0.1600E+02
     -3.597  0.0000E+00  0.0000E+00  0.1600E+02  0.1600E+02
     -3.559  0.0000E+00  0.0000E+00  0.1600E+02  0.1600E+02
     -3.521  0.0000E+00  0.0000E+00  0.1600E+02  0.1600E+02
     -3.484  0.0000E+00  0.0000E+00  0.1600E+02  0.1600E+02
     -3.446  0.0000E+00  0.0000E+00  0.1600E+02  0.1600E+02
     -3.408  0.0000E+00  0.0000E+00  0.1600E+02  0.1600E+02
     -3.370  0.0000E+00  0.0000E+00  0.1600E+02  0.1600E+02
     -3.332  0.0000E+00  0.0000E+00  0.1600E+02  0.1600E+02
     -3.294  0.0000E+00  0.0000E+00  0.1600E+02  0.1600E+02
     -3.256  0.0000E+00  0.0000E+00  0.1600E+02  0.1600E+02
     -3.218  0.0000E+00  0.0000E+00  0.1600E+02  0.1600E+02
     -3.181  0.0000E+00  0.0000E+00  0.1600E+02  0.1600E+02
     -3.143  0.0000E+00  0.0000E+00  0.1600E+02  0.1600E+02
     -3.105  0.0000E+00  0.0000E+00  0.1600E+02  0.1600E+02
     -3.067  0.0000E+00  0.0000E+00  0.1600E+02  0.1600E+02
     -3.029  0.0000E+00  0.0000E+00  0.1600E+02  0.1600E+02
     -2.991  0.0000E+00  0.0000E+00  0.1600E+02  0.1600E+02
     -2.953  0.0000E+00  0.0000E+00  0.1600E+02  0.1600E+02
     -2.915  0.0000E+00  0.0000E+00  0.1600E+02  0.1600E+02
     -2.878  0.0000E+00  0.0000E+00  0.1600E+02  0.1600E+02
     -2.840  0.0000E+00  0.0000E+00  0.1600E+02  0.1600E+02
     -2.802  0.0000E+00  0.0000E+00  0.1600E+02  0.1600E+02
     -2.764  0.0000E+00  0.0000E+00  0.1600E+02  0.1600E+02
     -2.726  0.0000E+00  0.0000E+00  0.1600E+02  0.1600E+02
     -2.688  0.0000E+00  0.0000E+00  0.1600E+02  0.1600E+02
     -2.650  0.0000E+00  0.0000E+00  0.1600E+02  0.1600E+02
     -2.612  0.0000E+00  0.0000E+00  0.1600E+02  0.1600E+02
     -2.575  0.0000E+00  0.0000E+00  0.1600E+02  0.1600E+02
     -2.537  0.0000E+00  0.0000E+00  0.1600E+02  0.1600E+02
     -2.499  0.0000E+00  0.0000E+00  0.1600E+02  0.1600E+02
     -2.461  0.0000E+00  0.0000E+00  0.1600E+02  0.1600E+02
     -2.423  0.0000E+00  0.0000E+00  0.1600E+02  0.1600E+02
     -2.385  0.0000E+00  0.0000E+00  0.1600E+02  0.1600E+02
     -2.347  0.0000E+00  0.0000E+00  0.1600E+02  0.1600E+02
     -2.310  0.0000E+00  0.0000E+00  0.1600E+02  0.1600E+02
     -2.272  0.0000E+00  0.0000E+00  0.1600E+02  0.1600E+02
     -2.234  0.0000E+00  0.0000E+00  0.1600E+02  0.1600E+02
     -2.196  0.0000E+00  0.0000E+00  0.1600E+02  0.1600E+02
     -2.158  0.0000E+00  0.0000E+00  0.1600E+02  0.1600E+02
     -2.120  0.0000E+00  0.0000E+00  0.1600E+02  0.1600E+02
     -2.082  0.0000E+00  0.0000E+00  0.1600E+02  0.1600E+02
     -2.044  0.0000E+00  0.0000E+00  0.1600E+02  0.1600E+02
     -2.007  0.0000E+00  0.0000E+00  0.1600E+02  0.1600E+02
     -1.969  0.0000E+00  0.0000E+00  0.1600E+02  0.1600E+02
     -1.931  0.0000E+00  0.0000E+00  0.1600E+02  0.1600E+02
     -1.893  0.0000E+00  0.0000E+00  0.1600E+02  0.1600E+02
     -1.855  0.0000E+00  0.0000E+00  0.1600E+02  0.1600E+02
     -1.817  0.0000E+00  0.0000E+00  0.1600E+02  0.1600E+02
     -1.779  0.0000E+00  0.0000E+00  0.1600E+02  0.1600E+02
     -1.741  0.0000E+00  0.0000E+00  0.1600E+02  0.1600E+02
     -1.704  0.0000E+00  0.0000E+00  0.1600E+02  0.1600E+02
     -1.666  0.0000E+00  0.0000E+00  0.1600E+02  0.1600E+02
     -1.628  0.0000E+00  0.0000E+00  0.1600E+02  0.1600E+02
     -1.590  0.0000E+00  0.0000E+00  0.1600E+02  0.1600E+02
     -1.552  0.0000E+00  0.0000E+00  0.1600E+02  0.1600E+02
     -1.514  0.0000E+00  0.0000E+00  0.1600E+02  0.1600E+02
     -1.476  0.0000E+00  0.0000E+00  0.1600E+02  0.1600E+02
     -1.439  0.0000E+00  0.0000E+00  0.1600E+02  0.1600E+02
     -1.401  0.0000E+00  0.0000E+00  0.1600E+02  0.1600E+02
     -1.363  0.0000E+00  0.0000E+00  0.1600E+02  0.1600E+02
     -1.325  0.0000E+00  0.0000E+00  0.1600E+02  0.1600E+02
     -1.287  0.8795E-14  0.8795E-14  0.1600E+02  0.1600E+02
     -1.249  0.5863E-13  0.5863E-13  0.1600E+02  0.1600E+02
     -1.211  0.4837E-12  0.4808E-12  0.1600E+02  0.1600E+02
     -1.173  0.3735E-11  0.3706E-11  0.1600E+02  0.1600E+02
     -1.136  0.2662E-10  0.2644E-10  0.1600E+02  0.1600E+02
     -1.098  0.1769E-09  0.1757E-09  0.1600E+02  0.1600E+02
     -1.060  0.1095E-08  0.1088E-08  0.1600E+02  0.1600E+02
     -1.022  0.6310E-08  0.6272E-08  0.1600E+02  0.1600E+02
     -0.984  0.3388E-07  0.3368E-07  0.1600E+02  0.1600E+02
     -0.946  0.1694E-06  0.1685E-06  0.1600E+02  0.1600E+02
     -0.908  0.7894E-06  0.7853E-06  0.1600E+02  0.1600E+02
     -0.870  0.3427E-05  0.3410E-05  0.1600E+02  0.1600E+02
     -0.833  0.1386E-04  0.1380E-04  0.1600E+02  0.1600E+02
     -0.795  0.5228E-04  0.5204E-04  0.1600E+02  0.1600E+02
     -0.757  0.1838E-03  0.1830E-03  0.1600E+02  0.1600E+02
     -0.719  0.6025E-03  0.6001E-03  0.1600E+02  0.1600E+02
     -0.681  0.1842E-02  0.1836E-02  0.1600E+02  0.1600E+02
     -0.643  0.5259E-02  0.5241E-02  0.1600E+02  0.1600E+02
     -0.605  0.1401E-01  0.1397E-01  0.1600E+02  0.1600E+02
     -0.567  0.3490E-01  0.3480E-01  0.1600E+02  0.1600E+02
     -0.530  0.8125E-01  0.8104E-01  0.1601E+02  0.1601E+02
     -0.492  0.1770E+00  0.1766E+00  0.1601E+02  0.1601E+02
     -0.454  0.3613E+00  0.3606E+00  0.1603E+02  0.1603E+02
     -0.416  0.6916E+00  0.6904E+00  0.1605E+02  0.1605E+02
     -0.378  0.1243E+01  0.1241E+01  0.1610E+02  0.1610E+02
     -0.340  0.2100E+01  0.2098E+01  0.1618E+02  0.1618E+02
     -0.302  0.3343E+01  0.3339E+01  0.1631E+02  0.1630E+02
     -0.265  0.5017E+01  0.5013E+01  0.1649E+02  0.1649E+02
     -0.227  0.7112E+01  0.7107E+01  0.1676E+02  0.1676E+02
     -0.189  0.9537E+01  0.9533E+01  0.1713E+02  0.1712E+02
     -0.151  0.1212E+02  0.1211E+02  0.1758E+02  0.1758E+02
     -0.113  0.1460E+02  0.1460E+02  0.1814E+02  0.1814E+02
     -0.075  0.1671E+02  0.1671E+02  0.1877E+02  0.1877E+02
     -0.037  0.1818E+02  0.1818E+02  0.1946E+02  0.1946E+02
      0.001  0.1883E+02  0.1883E+02  0.2017E+02  0.2017E+02
      0.038  0.1856E+02  0.1856E+02  0.2087E+02  0.2087E+02
      0.076  0.1744E+02  0.1744E+02  0.2153E+02  0.2153E+02
      0.114  0.1561E+02  0.1561E+02  0.2213E+02  0.2213E+02
      0.152  0.1331E+02  0.1332E+02  0.2263E+02  0.2263E+02
      0.190  0.1081E+02  0.1081E+02  0.2304E+02  0.2304E+02
      0.228  0.8346E+01  0.8350E+01  0.2336E+02  0.2336E+02
      0.266  0.6120E+01  0.6124E+01  0.2359E+02  0.2359E+02
      0.304  0.4253E+01  0.4257E+01  0.2375E+02  0.2375E+02
      0.341  0.2797E+01  0.2800E+01  0.2385E+02  0.2385E+02
      0.379  0.1736E+01  0.1738E+01  0.2392E+02  0.2392E+02
      0.417  0.1015E+01  0.1017E+01  0.2396E+02  0.2396E+02
      0.455  0.5584E+00  0.5595E+00  0.2398E+02  0.2398E+02
      0.493  0.2884E+00  0.2890E+00  0.2399E+02  0.2399E+02
      0.531  0.1396E+00  0.1399E+00  0.2400E+02  0.2400E+02
      0.569  0.6325E-01  0.6341E-01  0.2400E+02  0.2400E+02
      0.607  0.2680E-01  0.2688E-01  0.2400E+02  0.2400E+02
      0.644  0.1061E-01  0.1065E-01  0.2400E+02  0.2400E+02
      0.682  0.3925E-02  0.3938E-02  0.2400E+02  0.2400E+02
      0.720  0.1354E-02  0.1359E-02  0.2400E+02  0.2400E+02
      0.758  0.4359E-03  0.4376E-03  0.2400E+02  0.2400E+02
      0.796  0.1308E-03  0.1314E-03  0.2400E+02  0.2400E+02
      0.834  0.3660E-04  0.3676E-04  0.2400E+02  0.2400E+02
      0.872  0.9542E-05  0.9587E-05  0.2400E+02  0.2400E+02
      0.909  0.2318E-05  0.2330E-05  0.2400E+02  0.2400E+02
      0.947  0.5246E-06  0.5273E-06  0.2400E+02  0.2400E+02
      0.985  0.1106E-06  0.1112E-06  0.2400E+02  0.2400E+02
      1.023  0.2172E-07  0.2184E-07  0.2400E+02  0.2400E+02
      1.061  0.3972E-08  0.3996E-08  0.2400E+02  0.2400E+02
      1.099  0.6765E-09  0.6807E-09  0.2400E+02  0.2400E+02
      1.137  0.1073E-09  0.1080E-09  0.2400E+02  0.2400E+02
      1.175  0.1585E-10  0.1596E-10  0.2400E+02  0.2400E+02
      1.212  0.2181E-11  0.2193E-11  0.2400E+02  0.2400E+02
      1.250  0.2814E-12  0.2814E-12  0.2400E+02  0.2400E+02
      1.288  0.3518E-13  0.3518E-13  0.2400E+02  0.2400E+02
      1.326  0.0000E+00  0.0000E+00  0.2400E+02  0.2400E+02
      1.364  0.0000E+00  0.0000E+00  0.2400E+02  0.2400E+02
      1.402  0.0000E+00  0.0000E+00  0.2400E+02  0.2400E+02
      1.440  0.0000E+00  0.0000E+00  0.2400E+02  0.2400E+02
      1.478  0.0000E+00  0.0000E+00  0.2400E+02  0.2400E+02
      1.515  0.0000E+00  0.0000E+00  0.2400E+02  0.2400E+02
      1.553  0.0000E+00  0.0000E+00  0.2400E+02  0.2400E+02
      1.591  0.0000E+00  0.0000E+00  0.2400E+02  0.2400E+02
      1.629  0.0000E+00  0.0000E+00  0.2400E+02  0.2400E+02
      1.667  0.0000E+00  0.0000E+00  0.2400E+02  0.2400E+02
      1.705  0.0000E+00  0.0000E+00  0.2400E+02  0.2400E+02
      1.743  0.0000E+00  0.0000E+00  0.2400E+02  0.2400E+02
      1.781  0.0000E+00  0.0000E+00  0.2400E+02  0.2400E+02
      1.818  0.0000E+00  0.0000E+00  0.2400E+02  0.2400E+02
      1.856  0.0000E+00  0.0000E+00  0.2400E+02  0.2400E+02
      1.894  0.0000E+00  0.0000E+00  0.2400E+02  0.2400E+02
      1.932  0.0000E+00  0.0000E+00  0.2400E+02  0.2400E+02
      1.970  0.0000E+00  0.0000E+00  0.2400E+02  0.2400E+02
      2.008  0.0000E+00  0.0000E+00  0.2400E+02  0.2400E+02
      2.046  0.0000E+00  0.0000E+00  0.2400E+02  0.2400E+02
      2.083  0.0000E+00  0.0000E+00  0.2400E+02  0.2400E+02
      2.121  0.0000E+00  0.0000E+00  0.2400E+02  0.2400E+02
