    8    8    1    2
  0.6750000E+03  0.1500000E-08  0.1500000E-08  0.2400000E-08  0.5000000E-15
  1.000000000000000E-004
  CAR 
 unknown system                          
      8      1     12
 
  0.0000000E+00  0.0000000E+00  0.0000000E+00  0.1000000E+01
    1       -7.239857     -7.239857   0.999976   0.999976
    2       -7.084597     -7.084597   0.998484   0.998484
    3       -7.084597     -7.084597   0.998484   0.998484
    4       -6.665833     -6.665832   0.501335   0.501335
    5       -6.665830     -6.665830   0.501329   0.501329
    6       -6.163940     -6.163940   0.000196   0.000196
    7       -6.163940     -6.163940   0.000196   0.000196
    8       -5.919048     -5.919048   0.000000   0.000000
    9       -0.130136     -0.130001   0.000000   0.000000
   10       -0.011231     -0.011213   0.000000   0.000000
   11       -0.011231     -0.011213   0.000000   0.000000
   12        0.121208      0.121339   0.000000   0.000000
