       N       E                     dE             d eps       ncg     rms          rms(c)
DAV:   1     0.170736303689E+02    0.17074E+02   -0.71814E+02    48   0.158E+02
DAV:   2    -0.171313825638E+01   -0.18787E+02   -0.18694E+02    84   0.471E+01
DAV:   3    -0.311152898564E+01   -0.13984E+01   -0.12636E+01    64   0.172E+01
DAV:   4    -0.323555645004E+01   -0.12403E+00   -0.10917E+00    64   0.364E+00
DAV:   5    -0.323716354679E+01   -0.16071E-02   -0.16050E-02    52   0.373E-01    0.116E+00
DAV:   6    -0.323547217075E+01    0.16914E-02   -0.11699E-02    56   0.460E-01    0.667E-01
DAV:   7    -0.325098490204E+01   -0.15513E-01   -0.20717E-02    48   0.589E-01    0.637E-02
DAV:   8    -0.325275566197E+01   -0.17708E-02   -0.13744E-03    56   0.167E-01    0.204E-02
DAV:   9    -0.325293467782E+01   -0.17902E-03   -0.30292E-05    56   0.267E-02    0.401E-03
DAV:  10    -0.325299591655E+01   -0.61239E-04   -0.36680E-06    56   0.804E-03    0.292E-03
DAV:  11    -0.325307274596E+01   -0.76829E-04   -0.80292E-06    56   0.985E-03    0.169E-03
DAV:  12    -0.325311504429E+01   -0.42298E-04   -0.61631E-06    56   0.786E-03    0.167E-03
DAV:  13    -0.325312543848E+01   -0.10394E-04   -0.14602E-06    32   0.407E-03    0.842E-04
DAV:  14    -0.325313216155E+01   -0.67231E-05   -0.18398E-07    32   0.161E-03    0.346E-04
DAV:  15    -0.325314162185E+01   -0.94603E-05   -0.33889E-07    32   0.184E-03    0.232E-04
DAV:  16    -0.325314522826E+01   -0.36064E-05   -0.19242E-07    32   0.131E-03    0.143E-04
DAV:  17    -0.325314680623E+01   -0.15780E-05   -0.28188E-08    32   0.564E-04    0.133E-04
DAV:  18    -0.325314784325E+01   -0.10370E-05   -0.11110E-08    32   0.438E-04    0.353E-05
DAV:  19    -0.325314796024E+01   -0.11699E-06   -0.10496E-09    36   0.155E-04
   1 F= -.32531480E+01 E0= -.31386920E+01  d E =-.228912E+00  mag=    -0.0000
