 vasp.5.4.4.18Apr17-6-g9f103f2a35 (build Aug 24 2024 05:40:03) complex          
  
 executed on           IFC22_IMPI date 2024.11.22  21:50:09
 running on    4 total cores
 distrk:  each k-point on    4 cores,    1 groups
 distr:  one band on NCORES_PER_BAND=   1 cores,    4 groups


--------------------------------------------------------------------------------------------------------


 INCAR:
 POTCAR:    PAW_PBE H 15Jun2001                   
 POTCAR:    PAW_PBE H 15Jun2001                   
   VRHFIN =H: ultrasoft test                                                    
   LEXCH  = PE                                                                  
   EATOM  =    12.4884 eV,    0.9179 Ry                                         
                                                                                
   TITEL  = PAW_PBE H 15Jun2001                                                 
   LULTRA =        F    use ultrasoft PP ?                                      
   IUNSCR =        0    unscreen: 0-lin 1-nonlin 2-no                           
   RPACOR =    0.000    partial core radius                                     
   POMASS =    1.000; ZVAL   =    1.000    mass and valenz                      
   RCORE  =    1.100    outmost cutoff radius                                   
   RWIGS  =    0.700; RWIGS  =    0.370    wigner-seitz radius (au A)           
   ENMAX  =  250.000; ENMIN  =  200.000 eV                                      
   RCLOC  =    0.701    cutoff for local pot                                    
   LCOR   =        T    correct aug charges                                     
   LPAW   =        T    paw PP                                                  
   EAUG   =  400.000                                                            
   RMAX   =    1.123    core radius for proj-oper                               
   RAUG   =    1.200    factor for augmentation sphere                          
   RDEP   =    1.112    radius for radial grids                                 
   RDEPT  =    0.926    core radius for aug-charge                              
                                                                                
   Atomic configuration                                                         
    2 entries                                                                   
     n  l   j            E        occ.                                          
     1  0  0.50        -6.4927   1.0000                                         
     2  1  0.50        -3.4015   0.0000                                         
   Description                                                                  
     l       E           TYP  RCUT    TYP  RCUT                                 
     0     -6.4927494     23  1.100                                             
     0      6.8029130     23  1.100                                             
     1     -4.0817478     23  1.100                                             
  local pseudopotential read in
  atomic valenz-charges read in
  non local Contribution for L=           0  read in
    real space projection operators read in
  non local Contribution for L=           0  read in
    real space projection operators read in
  non local Contribution for L=           1  read in
    real space projection operators read in
    PAW grid and wavefunctions read in
 
   number of l-projection  operators is LMAX  =           3
   number of lm-projection operators is LMMAX =           5
 
  PAW_PBE H 15Jun2001                   :
 energy of atom  1       EATOM=  -12.4884
 kinetic energy error for atom=    0.0426 (will be added to EATOM!!)
 
 
 POSCAR: H8                                      
  positions in direct lattice
  No initial velocities read in
 exchange correlation table for  LEXCH =        8
   RHO(1)=    0.500       N(1)  =     2000
   RHO(2)=  100.500       N(2)  =     4000
 


--------------------------------------------------------------------------------------------------------


 ion  position               nearest neighbor table
   1  0.000  0.000  0.000-
   2  0.000  0.000  0.125-
   3  0.000  0.000  0.250-
   4  0.000  0.000  0.375-
   5  0.000  0.000  0.500-
   6  0.000  0.000  0.625-
   7  0.000  0.000  0.750-
   8  0.000  0.000  0.875-
 
  LATTYP: Found a simple tetragonal cell.
 ALAT       =    15.0000000000
 C/A-ratio  =     1.6000000000
  
  Lattice vectors:
  
 A1 = (  15.0000000000,   0.0000000000,   0.0000000000)
 A2 = (   0.0000000000,  15.0000000000,   0.0000000000)
 A3 = (   0.0000000000,   0.0000000000,  24.0000000000)


Analysis of symmetry for initial positions (statically):
=====================================================================
 Subroutine PRICEL returns following result:
 
  LATTYP: Found a simple tetragonal cell.
 ALAT       =    15.0000000000
 C/A-ratio  =     0.2000000000
  
  Lattice vectors:
  
 A1 = (  15.0000000000,   0.0000000000,   0.0000000000)
 A2 = (   0.0000000000,  15.0000000000,   0.0000000000)
 A3 = (   0.0000000000,   0.0000000000,   3.0000000000)
 
   8 primitive cells build up your supercell.
 

 Routine SETGRP: Setting up the symmetry group for a 
 simple tetragonal supercell.


 Subroutine GETGRP returns: Found 16 space group operations
 (whereof 16 operations were pure point group operations)
 out of a pool of 16 trial point group operations.


The static configuration has the point symmetry D_4h.


Analysis of symmetry for dynamics (positions and initial velocities):
=====================================================================
 Subroutine PRICEL returns following result:
 
  LATTYP: Found a simple tetragonal cell.
 ALAT       =    15.0000000000
 C/A-ratio  =     0.2000000000
  
  Lattice vectors:
  
 A1 = (  15.0000000000,   0.0000000000,   0.0000000000)
 A2 = (   0.0000000000,  15.0000000000,   0.0000000000)
 A3 = (   0.0000000000,   0.0000000000,   3.0000000000)
 
   8 primitive cells build up your supercell.
 

 Routine SETGRP: Setting up the symmetry group for a 
 simple tetragonal supercell.


 Subroutine GETGRP returns: Found 16 space group operations
 (whereof 16 operations were pure point group operations)
 out of a pool of 16 trial point group operations.


The dynamic configuration has the point symmetry D_4h.


Analysis of structural, dynamic, and magnetic symmetry:
=====================================================================
 Subroutine PRICEL returns following result:
 
  LATTYP: Found a simple tetragonal cell.
 ALAT       =    15.0000000000
 C/A-ratio  =     0.2000000000
  
  Lattice vectors:
  
 A1 = (  15.0000000000,   0.0000000000,   0.0000000000)
 A2 = (   0.0000000000,  15.0000000000,   0.0000000000)
 A3 = (   0.0000000000,   0.0000000000,   3.0000000000)
 
   8 primitive cells build up your supercell.
 

 Routine SETGRP: Setting up the symmetry group for a 
 simple tetragonal supercell.


 Subroutine GETGRP returns: Found 16 space group operations
 (whereof 16 operations were pure point group operations)
 out of a pool of 16 trial point group operations.


The magnetic configuration has the point symmetry D_4h.


 Subroutine INISYM returns: Found 16 space group operations
 (whereof 16 operations are pure point group operations),
 and found     8 'primitive' translations

 
 
 KPOINTS: Automatic kpoint scheme                 

Automatic generation of k-mesh.
Space group operators:
 irot       det(A)        alpha          n_x          n_y          n_z        tau_x        tau_y        tau_z
    1     1.000000     0.000001     1.000000     0.000000     0.000000     0.000000     0.000000     0.000000
    2    -1.000000     0.000001     1.000000     0.000000     0.000000     0.000000     0.000000     0.000000
    3     1.000000    90.000000     0.000000     0.000000    -1.000000     0.000000     0.000000     0.000000
    4    -1.000000    90.000000     0.000000     0.000000    -1.000000     0.000000     0.000000     0.000000
    5     1.000000   180.000000    -0.000000    -0.000000     1.000000     0.000000     0.000000     0.000000
    6    -1.000000   180.000000    -0.000000    -0.000000     1.000000     0.000000     0.000000     0.000000
    7     1.000000    90.000000    -0.000000    -0.000000     1.000000     0.000000     0.000000     0.000000
    8    -1.000000    90.000000    -0.000000    -0.000000     1.000000     0.000000     0.000000     0.000000
    9     1.000000   180.000000     0.000000     1.000000     0.000000     0.000000     0.000000     0.000000
   10    -1.000000   180.000000     0.000000     1.000000     0.000000     0.000000     0.000000     0.000000
   11     1.000000   180.000000     0.707107     0.707107     0.000000     0.000000     0.000000     0.000000
   12    -1.000000   180.000000     0.707107     0.707107     0.000000     0.000000     0.000000     0.000000
   13     1.000000   180.000000     1.000000    -0.000000     0.000000     0.000000     0.000000     0.000000
   14    -1.000000   180.000000     1.000000    -0.000000     0.000000     0.000000     0.000000     0.000000
   15     1.000000   180.000000     0.707107    -0.707107     0.000000     0.000000     0.000000     0.000000
   16    -1.000000   180.000000     0.707107    -0.707107     0.000000     0.000000     0.000000     0.000000
 
 Subroutine IBZKPT returns following result:
 ===========================================
 
 Found      1 irreducible k-points:
 
 Following reciprocal coordinates:
            Coordinates               Weight
  0.000000  0.000000  0.000000      1.000000
 
 Following cartesian coordinates:
            Coordinates               Weight
  0.000000  0.000000  0.000000      1.000000
 


--------------------------------------------------------------------------------------------------------




 Dimension of arrays:
   k-points           NKPTS =      1   k-points in BZ     NKDIM =      1   number of bands    NBANDS=     12
   number of dos      NEDOS =    301   number of ions     NIONS =      8
   non local maximal  LDIM  =      3   non local SUM 2l+1 LMDIM =      5
   total plane-waves  NPLWV = 442368
   max r-space proj   IRMAX =      1   max aug-charges    IRDMAX=    598
   dimension x,y,z NGX =    64 NGY =   64 NGZ =  108
   dimension x,y,z NGXF=   128 NGYF=  128 NGZF=  216
   support grid    NGXF=   128 NGYF=  128 NGZF=  216
   ions per type =               8
   NGX,Y,Z   is equivalent  to a cutoff of   7.09,  7.09,  7.48 a.u.
   NGXF,Y,Z  is equivalent  to a cutoff of  14.19, 14.19, 14.96 a.u.

 SYSTEM =  unknown system                          
 POSCAR =  H8                                      

 Startparameter for this run:
   NWRITE =      2    write-flag & timer
   PREC   = normal    normal or accurate (medium, high low for compatibility)
   ISTART =      0    job   : 0-new  1-cont  2-samecut
   ICHARG =      2    charge: 1-file 2-atom 10-const
   ISPIN  =      2    spin polarized calculation?
   LNONCOLLINEAR =      F non collinear calculations
   LSORBIT =      F    spin-orbit coupling
   INIWAV =      1    electr: 0-lowe 1-rand  2-diag
   LASPH  =      F    aspherical Exc in radial PAW
   METAGGA=      F    non-selfconsistent MetaGGA calc.

 Electronic Relaxation 1
   ENCUT  =  300.0 eV  22.05 Ry    4.70 a.u.  21.18 21.18 33.89*2*pi/ulx,y,z
   ENINI  =  300.0     initial cutoff
   ENAUG  =  400.0 eV  augmentation charge cutoff
   NELM   =    100;   NELMIN=  2; NELMDL= -5     # of ELM steps 
   EDIFF  = 0.1E-05   stopping-criterion for ELM
   LREAL  =      F    real-space projection
   NLSPLINE    = F    spline interpolate recip. space projectors
   LCOMPAT=      F    compatible to vasp.4.4
   GGA_COMPAT  = T    GGA compatible to vasp.4.4-vasp.4.6
   LMAXPAW     = -100 max onsite density
   LMAXMIX     =    2 max onsite mixed and CHGCAR
   VOSKOWN=      0    Vosko Wilk Nusair interpolation
   ROPT   =    0.00000
 Ionic relaxation
   EDIFFG = 0.1E-04   stopping-criterion for IOM
   NSW    =      0    number of steps for IOM
   NBLOCK =      1;   KBLOCK =      1    inner block; outer block 
   IBRION =     -1    ionic relax: 0-MD 1-quasi-New 2-CG
   NFREE  =      0    steps in history (QN), initial steepest desc. (CG)
   ISIF   =      2    stress and relaxation
   IWAVPR =     10    prediction:  0-non 1-charg 2-wave 3-comb
   ISYM   =      2    0-nonsym 1-usesym 2-fastsym
   LCORR  =      T    Harris-Foulkes like correction to forces

   POTIM  = 0.5000    time-step for ionic-motion
   TEIN   =    0.0    initial temperature
   TEBEG  =    0.0;   TEEND  =   0.0 temperature during run
   SMASS  =  -3.00    Nose mass-parameter (am)
   estimated Nose-frequenzy (Omega)   =  0.10E-29 period in steps =****** mass=  -0.514E-26a.u.
   SCALEE = 1.0000    scale energy and forces
   NPACO  =    256;   APACO  = 16.0  distance and # of slots for P.C.
   PSTRESS=    0.0 pullay stress

  Mass of Ions in am
   POMASS =   1.00
  Ionic Valenz
   ZVAL   =   1.00
  Atomic Wigner-Seitz radii
   RWIGS  =  -1.00
  virtual crystal weights 
   VCA    =   1.00
   NELECT =       8.0000    total number of electrons
   NUPDOWN=       0.0000    fix difference up-down

 DOS related values:
   EMIN   =  10.00;   EMAX   =-10.00  energy-range for DOS
   EFERMI =   0.00
   ISMEAR =     0;   SIGMA  =   0.20  broadening in eV -4-tet -1-fermi 0-gaus

 Electronic relaxation 2 (details)
   IALGO  =     38    algorithm
   LDIAG  =      T    sub-space diagonalisation (order eigenvalues)
   LSUBROT=      F    optimize rotation matrix (better conditioning)
   TURBO    =      0    0=normal 1=particle mesh
   IRESTART =      0    0=no restart 2=restart with 2 vectors
   NREBOOT  =      0    no. of reboots
   NMIN     =      0    reboot dimension
   EREF     =   0.00    reference energy to select bands
   IMIX   =      4    mixing-type and parameters
     AMIX     =   0.40;   BMIX     =  1.00
     AMIX_MAG =   1.60;   BMIX_MAG =  1.00
     AMIN     =   0.10
     WC   =   100.;   INIMIX=   1;  MIXPRE=   1;  MAXMIX= -45

 Intra band minimization:
   WEIMIN = 0.0000     energy-eigenvalue tresh-hold
   EBREAK =  0.21E-07  absolut break condition
   DEPER  =   0.30     relativ break condition  

   TIME   =   0.40     timestep for ELM

  volume/ion in A,a.u.               =     675.00      4555.12
  Fermi-wavevector in a.u.,A,eV,Ry     =   0.186627  0.352673  0.473884  0.034829
  Thomas-Fermi vector in A             =   0.921172
 
 Write flags
   LWAVE        =      F    write WAVECAR
   LDOWNSAMPLE  =      F    k-point downsampling of WAVECAR
   LCHARG       =      F    write CHGCAR
   LVTOT        =      F    write LOCPOT, total local potential
   LVHAR        =      F    write LOCPOT, Hartree potential only
   LELF         =      F    write electronic localiz. function (ELF)
   LORBIT       =      0    0 simple, 1 ext, 2 COOP (PROOUT), +10 PAW based schemes


 Dipole corrections
   LMONO  =      F    monopole corrections only (constant potential shift)
   LDIPOL =      F    correct potential (dipole corrections)
   IDIPOL =      0    1-x, 2-y, 3-z, 4-all directions 
   EPSILON=  1.0000000 bulk dielectric constant

 Exchange correlation treatment:
   GGA     =    --    GGA type
   LEXCH   =     8    internal setting for exchange type
   VOSKOWN=      0    Vosko Wilk Nusair interpolation
   LHFCALC =     F    Hartree Fock is set to
   LHFONE  =     F    Hartree Fock one center treatment
   AEXX    =    0.0000 exact exchange contribution

 Linear response parameters
   LEPSILON=     F    determine dielectric tensor
   LRPA    =     F    only Hartree local field effects (RPA)
   LNABLA  =     F    use nabla operator in PAW spheres
   LVEL    =     F    velocity operator in full k-point grid
   LINTERFAST=   F  fast interpolation
   KINTER  =     0    interpolate to denser k-point grid
   CSHIFT  =0.1000    complex shift for real part using Kramers Kronig
   OMEGAMAX=  -1.0    maximum frequency
   DEG_THRESHOLD= 0.2000000E-02 threshold for treating states as degnerate
   RTIME   =   -0.100 relaxation time in fs
  (WPLASMAI=    0.000 imaginary part of plasma frequency in eV, 0.658/RTIME)
   DFIELD  = 0.0000000 0.0000000 0.0000000 field for delta impulse in time
 
 Orbital magnetization related:
   ORBITALMAG=     F  switch on orbital magnetization
   LCHIMAG   =     F  perturbation theory with respect to B field
   DQ        =  0.001000  dq finite difference perturbation B field
   LLRAUG    =     F  two centre corrections for induced B field



--------------------------------------------------------------------------------------------------------


 Static calculation
 charge density and potential will be updated during run
 spin polarized calculation
 Variant of blocked Davidson
 Davidson routine will perform the subspace rotation
 perform sub-space diagonalisation
    after iterative eigenvector-optimisation
 modified Broyden-mixing scheme, WC =      100.0
 initial mixing is a Kerker type mixing with AMIX =  0.4000 and BMIX =      1.0000
 Hartree-type preconditioning will be used
 using additional bands            8
 reciprocal scheme for non local part
 calculate Harris-corrections to forces 
   (improved forces if not selfconsistent)
 use gradient corrections 
 use of overlap-Matrix (Vanderbilt PP)
 Gauss-broadening in eV      SIGMA  =   0.20


--------------------------------------------------------------------------------------------------------


  energy-cutoff  :      300.00
  volume of cell :     5400.00
      direct lattice vectors                 reciprocal lattice vectors
    15.000000000  0.000000000  0.000000000     0.066666667 -0.000000000  0.000000000
     0.000000000 15.000000000  0.000000000     0.000000000  0.066666667  0.000000000
     0.000000000  0.000000000 24.000000000    -0.000000000 -0.000000000  0.041666667

  length of vectors
    15.000000000 15.000000000 24.000000000     0.066666667  0.066666667  0.041666667


 
 k-points in units of 2pi/SCALE and weight: Automatic kpoint scheme                 
   0.00000000  0.00000000  0.00000000       1.000
 
 k-points in reciprocal lattice and weights: Automatic kpoint scheme                 
   0.00000000  0.00000000  0.00000000       1.000
 
 position of ions in fractional coordinates (direct lattice) 
   0.00000000  0.00000000  0.00000000
   0.00000000  0.00000000  0.12500000
   0.00000000  0.00000000  0.25000000
   0.00000000  0.00000000  0.37500000
   0.00000000  0.00000000  0.50000000
   0.00000000  0.00000000  0.62500000
   0.00000000  0.00000000  0.75000000
   0.00000000  0.00000000  0.87500000
 
 position of ions in cartesian coordinates  (Angst):
   0.00000000  0.00000000  0.00000000
   0.00000000  0.00000000  3.00000000
   0.00000000  0.00000000  6.00000000
   0.00000000  0.00000000  9.00000000
   0.00000000  0.00000000 12.00000000
   0.00000000  0.00000000 15.00000000
   0.00000000  0.00000000 18.00000000
   0.00000000  0.00000000 21.00000000
 


--------------------------------------------------------------------------------------------------------


 k-point  1 :   0.0000 0.0000 0.0000  plane waves:   63543

 maximum and minimum number of plane-waves per node :     63543    63543

 maximum number of plane-waves:     63543
 maximum index in each direction: 
   IXMAX=   21   IYMAX=   21   IZMAX=   33
   IXMIN=  -21   IYMIN=  -21   IZMIN=  -33


 serial   3D FFT for wavefunctions
 parallel 3D FFT for charge:
    minimum data exchange during FFTs selected (reduces bandwidth)


 total amount of memory used by VASP MPI-rank0   178198. kBytes
=======================================================================

   base      :      30000. kBytes
   nonl-proj :      10675. kBytes
   fftplans  :      31720. kBytes
   grid      :      99680. kBytes
   one-center:         19. kBytes
   wavefun   :       6104. kBytes
 
     INWAV:  cpu time    0.0000: real time    0.0000
 Broyden mixing: mesh for mixing (old mesh)
   NGX = 43   NGY = 43   NGZ = 67
  (NGX  =128   NGY  =128   NGZ  =216)
  gives a total of 123883 points

 initial charge density was supplied:
 charge density of overlapping atoms calculated
 number of electron       8.0000000 magnetization       0.0000000
 keeping initial charge density in first step


--------------------------------------------------------------------------------------------------------


 Maximum index for augmentation-charges           91 (set IRDMAX)


--------------------------------------------------------------------------------------------------------


 First call to EWALD:  gamma=   0.101
 Maximum number of real-space cells 3x 3x 2
 Maximum number of reciprocal cells 2x 2x 4

    FEWALD:  cpu time    0.0017: real time    0.0017


--------------------------------------- Iteration      1(   1)  ---------------------------------------


    POTLOK:  cpu time    1.3940: real time    1.3936
    SETDIJ:  cpu time    0.0129: real time    0.0129
     EDDAV:  cpu time    0.9148: real time    0.9145
       DOS:  cpu time    0.0003: real time    0.0003
    --------------------------------------------
      LOOP:  cpu time    2.3220: real time    2.3214

 eigenvalue-minimisations  :    48
 total energy-change (2. order) : 0.1707363E+02  (-0.7181377E+02)
 number of electron       8.0000000 magnetization       0.0000000
 augmentation part        8.0000000 magnetization       0.0000000

 Free energy of the ion-electron system (eV)
  ---------------------------------------------------
  alpha Z        PSCENC =         0.02887310
  Ewald energy   TEWEN  =         7.02607689
  -Hartree energ DENC   =       -70.31291632
  -exchange      EXHF   =         0.00000000
  -V(xc)+E(xc)   XCENC  =        15.18358118
  PAW double counting   =        17.07221949      -17.14324176
  entropy T*S    EENTRO =        -0.00000000
  eigenvalues    EBANDS =       -34.34716527
  atomic energy  EATOM  =        99.56620307
  Solvation  Ediel_sol  =         0.00000000
  ---------------------------------------------------
  free energy    TOTEN  =        17.07363037 eV

  energy without entropy =       17.07363037  energy(sigma->0) =       17.07363037


--------------------------------------------------------------------------------------------------------




--------------------------------------- Iteration      1(   2)  ---------------------------------------


     EDDAV:  cpu time    1.3758: real time    1.3754
       DOS:  cpu time    0.0003: real time    0.0003
    --------------------------------------------
      LOOP:  cpu time    1.3761: real time    1.3757

 eigenvalue-minimisations  :    84
 total energy-change (2. order) :-0.1878677E+02  (-0.1869411E+02)
 number of electron       8.0000000 magnetization       0.0000000
 augmentation part        8.0000000 magnetization       0.0000000

 Free energy of the ion-electron system (eV)
  ---------------------------------------------------
  alpha Z        PSCENC =         0.02887310
  Ewald energy   TEWEN  =         7.02607689
  -Hartree energ DENC   =       -70.31291632
  -exchange      EXHF   =         0.00000000
  -V(xc)+E(xc)   XCENC  =        15.18358118
  PAW double counting   =        17.07221949      -17.14324176
  entropy T*S    EENTRO =        -0.00289929
  eigenvalues    EBANDS =       -53.13103460
  atomic energy  EATOM  =        99.56620307
  Solvation  Ediel_sol  =         0.00000000
  ---------------------------------------------------
  free energy    TOTEN  =        -1.71313826 eV

  energy without entropy =       -1.71023896  energy(sigma->0) =       -1.71168861


--------------------------------------------------------------------------------------------------------




--------------------------------------- Iteration      1(   3)  ---------------------------------------


     EDDAV:  cpu time    1.1059: real time    1.1056
       DOS:  cpu time    0.0003: real time    0.0003
    --------------------------------------------
      LOOP:  cpu time    1.1062: real time    1.1059

 eigenvalue-minimisations  :    64
 total energy-change (2. order) :-0.1398391E+01  (-0.1263608E+01)
 number of electron       8.0000000 magnetization       0.0000000
 augmentation part        8.0000000 magnetization       0.0000000

 Free energy of the ion-electron system (eV)
  ---------------------------------------------------
  alpha Z        PSCENC =         0.02887310
  Ewald energy   TEWEN  =         7.02607689
  -Hartree energ DENC   =       -70.31291632
  -exchange      EXHF   =         0.00000000
  -V(xc)+E(xc)   XCENC  =        15.18358118
  PAW double counting   =        17.07221949      -17.14324176
  entropy T*S    EENTRO =        -0.21171163
  eigenvalues    EBANDS =       -54.32061300
  atomic energy  EATOM  =        99.56620307
  Solvation  Ediel_sol  =         0.00000000
  ---------------------------------------------------
  free energy    TOTEN  =        -3.11152899 eV

  energy without entropy =       -2.89981736  energy(sigma->0) =       -3.00567317


--------------------------------------------------------------------------------------------------------




--------------------------------------- Iteration      1(   4)  ---------------------------------------


     EDDAV:  cpu time    1.1039: real time    1.1035
       DOS:  cpu time    0.0003: real time    0.0003
    --------------------------------------------
      LOOP:  cpu time    1.1042: real time    1.1038

 eigenvalue-minimisations  :    64
 total energy-change (2. order) :-0.1240275E+00  (-0.1091679E+00)
 number of electron       8.0000000 magnetization       0.0000000
 augmentation part        8.0000000 magnetization       0.0000000

 Free energy of the ion-electron system (eV)
  ---------------------------------------------------
  alpha Z        PSCENC =         0.02887310
  Ewald energy   TEWEN  =         7.02607689
  -Hartree energ DENC   =       -70.31291632
  -exchange      EXHF   =         0.00000000
  -V(xc)+E(xc)   XCENC  =        15.18358118
  PAW double counting   =        17.07221949      -17.14324176
  entropy T*S    EENTRO =        -0.22892336
  eigenvalues    EBANDS =       -54.42742873
  atomic energy  EATOM  =        99.56620307
  Solvation  Ediel_sol  =         0.00000000
  ---------------------------------------------------
  free energy    TOTEN  =        -3.23555645 eV

  energy without entropy =       -3.00663309  energy(sigma->0) =       -3.12109477


--------------------------------------------------------------------------------------------------------




--------------------------------------- Iteration      1(   5)  ---------------------------------------


     EDDAV:  cpu time    0.9368: real time    0.9365
       DOS:  cpu time    0.0003: real time    0.0003
    CHARGE:  cpu time    0.4177: real time    0.4176
    MIXING:  cpu time    0.0245: real time    0.0245
    --------------------------------------------
      LOOP:  cpu time    1.3793: real time    1.3790

 eigenvalue-minimisations  :    52
 total energy-change (2. order) :-0.1607097E-02  (-0.1605005E-02)
 number of electron       8.0000017 magnetization       0.0000000
 augmentation part        0.0943922 magnetization       0.0000030

 Broyden mixing:
  rms(total) = 0.11639E+00    rms(broyden)= 0.11378E+00
  rms(prec ) = 0.11951E+00
  weight for this iteration     100.00

 Free energy of the ion-electron system (eV)
  ---------------------------------------------------
  alpha Z        PSCENC =         0.02887310
  Ewald energy   TEWEN  =         7.02607689
  -Hartree energ DENC   =       -70.31291632
  -exchange      EXHF   =         0.00000000
  -V(xc)+E(xc)   XCENC  =        15.18358118
  PAW double counting   =        17.07221949      -17.14324176
  entropy T*S    EENTRO =        -0.22896518
  eigenvalues    EBANDS =       -54.42899401
  atomic energy  EATOM  =        99.56620307
  Solvation  Ediel_sol  =         0.00000000
  ---------------------------------------------------
  free energy    TOTEN  =        -3.23716355 eV

  energy without entropy =       -3.00819837  energy(sigma->0) =       -3.12268096


--------------------------------------------------------------------------------------------------------




--------------------------------------- Iteration      1(   6)  ---------------------------------------


    POTLOK:  cpu time    1.4222: real time    1.4217
    SETDIJ:  cpu time    0.0140: real time    0.0139
     EDDAV:  cpu time    1.0228: real time    1.0224
       DOS:  cpu time    0.0038: real time    0.0038
    CHARGE:  cpu time    0.4018: real time    0.4016
    MIXING:  cpu time    0.0281: real time    0.0281
    --------------------------------------------
      LOOP:  cpu time    2.8925: real time    2.8916

 eigenvalue-minimisations  :    56
 total energy-change (2. order) : 0.1691376E-02  (-0.1169880E-02)
 number of electron       8.0000017 magnetization       0.0000000
 augmentation part        0.0950190 magnetization       0.0000005

 Broyden mixing:
  rms(total) = 0.66709E-01    rms(broyden)= 0.66550E-01
  rms(prec ) = 0.70140E-01
  weight for this iteration     100.00

 eigenvalues of (default mixing * dielectric matrix)
  average eigenvalue GAMMA=   2.3785
  2.3785

 Free energy of the ion-electron system (eV)
  ---------------------------------------------------
  alpha Z        PSCENC =         0.02887310
  Ewald energy   TEWEN  =         7.02607689
  -Hartree energ DENC   =       -69.44754867
  -exchange      EXHF   =         0.00000000
  -V(xc)+E(xc)   XCENC  =        14.98000333
  PAW double counting   =        17.27722682      -17.34262515
  entropy T*S    EENTRO =        -0.22899275
  eigenvalues    EBANDS =       -55.09468880
  atomic energy  EATOM  =        99.56620307
  Solvation  Ediel_sol  =         0.00000000
  ---------------------------------------------------
  free energy    TOTEN  =        -3.23547217 eV

  energy without entropy =       -3.00647942  energy(sigma->0) =       -3.12097580


--------------------------------------------------------------------------------------------------------




--------------------------------------- Iteration      1(   7)  ---------------------------------------


    POTLOK:  cpu time    1.3889: real time    1.3884
    SETDIJ:  cpu time    0.0136: real time    0.0136
     EDDAV:  cpu time    0.9132: real time    0.9314
       DOS:  cpu time    0.0038: real time    0.0037
    CHARGE:  cpu time    0.4115: real time    0.4114
    MIXING:  cpu time    0.0282: real time    0.0282
    --------------------------------------------
      LOOP:  cpu time    2.7590: real time    2.7767

 eigenvalue-minimisations  :    48
 total energy-change (2. order) :-0.1551273E-01  (-0.2071695E-02)
 number of electron       8.0000017 magnetization       0.0000000
 augmentation part        0.0958035 magnetization      -0.0000011

 Broyden mixing:
  rms(total) = 0.63743E-02    rms(broyden)= 0.63477E-02
  rms(prec ) = 0.69962E-02
  weight for this iteration     100.00

 eigenvalues of (default mixing * dielectric matrix)
  average eigenvalue GAMMA=   2.6018
  2.2039  2.9997

 Free energy of the ion-electron system (eV)
  ---------------------------------------------------
  alpha Z        PSCENC =         0.02887310
  Ewald energy   TEWEN  =         7.02607689
  -Hartree energ DENC   =       -68.24710728
  -exchange      EXHF   =         0.00000000
  -V(xc)+E(xc)   XCENC  =        14.68813193
  PAW double counting   =        17.92211487      -17.98059898
  entropy T*S    EENTRO =        -0.22899432
  eigenvalues    EBANDS =       -56.02568418
  atomic energy  EATOM  =        99.56620307
  Solvation  Ediel_sol  =         0.00000000
  ---------------------------------------------------
  free energy    TOTEN  =        -3.25098490 eV

  energy without entropy =       -3.02199058  energy(sigma->0) =       -3.13648774


--------------------------------------------------------------------------------------------------------




--------------------------------------- Iteration      1(   8)  ---------------------------------------


    POTLOK:  cpu time    1.3997: real time    1.3993
    SETDIJ:  cpu time    0.0137: real time    0.0137
     EDDAV:  cpu time    1.0167: real time    1.0164
       DOS:  cpu time    0.0038: real time    0.0038
    CHARGE:  cpu time    0.3986: real time    0.3985
    MIXING:  cpu time    0.0299: real time    0.0299
    --------------------------------------------
      LOOP:  cpu time    2.8625: real time    2.8616

 eigenvalue-minimisations  :    56
 total energy-change (2. order) :-0.1770760E-02  (-0.1374364E-03)
 number of electron       8.0000017 magnetization       0.0000000
 augmentation part        0.0959199 magnetization       0.0000026

 Broyden mixing:
  rms(total) = 0.20350E-02    rms(broyden)= 0.20343E-02
  rms(prec ) = 0.21713E-02
  weight for this iteration     100.00

 eigenvalues of (default mixing * dielectric matrix)
  average eigenvalue GAMMA=   2.1006
  3.0998  2.3862  0.8157

 Free energy of the ion-electron system (eV)
  ---------------------------------------------------
  alpha Z        PSCENC =         0.02887310
  Ewald energy   TEWEN  =         7.02607689
  -Hartree energ DENC   =       -68.13564932
  -exchange      EXHF   =         0.00000000
  -V(xc)+E(xc)   XCENC  =        14.66289050
  PAW double counting   =        18.18345978      -18.24238781
  entropy T*S    EENTRO =        -0.22892404
  eigenvalues    EBANDS =       -56.11329782
  atomic energy  EATOM  =        99.56620307
  Solvation  Ediel_sol  =         0.00000000
  ---------------------------------------------------
  free energy    TOTEN  =        -3.25275566 eV

  energy without entropy =       -3.02383162  energy(sigma->0) =       -3.13829364


--------------------------------------------------------------------------------------------------------




--------------------------------------- Iteration      1(   9)  ---------------------------------------


    POTLOK:  cpu time    1.3910: real time    1.3906
    SETDIJ:  cpu time    0.0136: real time    0.0136
     EDDAV:  cpu time    1.0222: real time    1.0218
       DOS:  cpu time    0.0037: real time    0.0037
    CHARGE:  cpu time    0.4066: real time    0.4065
    MIXING:  cpu time    0.0321: real time    0.0321
    --------------------------------------------
      LOOP:  cpu time    2.8692: real time    2.8683

 eigenvalue-minimisations  :    56
 total energy-change (2. order) :-0.1790158E-03  (-0.3029158E-05)
 number of electron       8.0000017 magnetization      -0.0000000
 augmentation part        0.0959316 magnetization      -0.0000007

 Broyden mixing:
  rms(total) = 0.40052E-03    rms(broyden)= 0.40046E-03
  rms(prec ) = 0.59853E-03
  weight for this iteration     100.00

 eigenvalues of (default mixing * dielectric matrix)
  average eigenvalue GAMMA=   1.9447
  3.1787  2.5615  1.3258  0.7128

 Free energy of the ion-electron system (eV)
  ---------------------------------------------------
  alpha Z        PSCENC =         0.02887310
  Ewald energy   TEWEN  =         7.02607689
  -Hartree energ DENC   =       -68.14419494
  -exchange      EXHF   =         0.00000000
  -V(xc)+E(xc)   XCENC  =        14.66604903
  PAW double counting   =        18.18313092      -18.24232267
  entropy T*S    EENTRO =        -0.22890989
  eigenvalues    EBANDS =       -56.10784019
  atomic energy  EATOM  =        99.56620307
  Solvation  Ediel_sol  =         0.00000000
  ---------------------------------------------------
  free energy    TOTEN  =        -3.25293468 eV

  energy without entropy =       -3.02402479  energy(sigma->0) =       -3.13847973


--------------------------------------------------------------------------------------------------------




--------------------------------------- Iteration      1(  10)  ---------------------------------------


    POTLOK:  cpu time    1.3839: real time    1.3835
    SETDIJ:  cpu time    0.0137: real time    0.0137
     EDDAV:  cpu time    1.0331: real time    1.0328
       DOS:  cpu time    0.0039: real time    0.0039
    CHARGE:  cpu time    0.4105: real time    0.4103
    MIXING:  cpu time    0.0347: real time    0.0347
    --------------------------------------------
      LOOP:  cpu time    2.8797: real time    2.8788

 eigenvalue-minimisations  :    56
 total energy-change (2. order) :-0.6123873E-04  (-0.3668001E-06)
 number of electron       8.0000017 magnetization      -0.0000000
 augmentation part        0.0959322 magnetization       0.0000007

 Broyden mixing:
  rms(total) = 0.29221E-03    rms(broyden)= 0.29221E-03
  rms(prec ) = 0.46982E-03
  weight for this iteration     100.00

 eigenvalues of (default mixing * dielectric matrix)
  average eigenvalue GAMMA=   1.9460
  3.2077  2.6655  2.2035  0.9773  0.6759

 Free energy of the ion-electron system (eV)
  ---------------------------------------------------
  alpha Z        PSCENC =         0.02887310
  Ewald energy   TEWEN  =         7.02607689
  -Hartree energ DENC   =       -68.13946070
  -exchange      EXHF   =         0.00000000
  -V(xc)+E(xc)   XCENC  =        14.66607713
  PAW double counting   =        18.15971248      -18.21890091
  entropy T*S    EENTRO =        -0.22890862
  eigenvalues    EBANDS =       -56.11266835
  atomic energy  EATOM  =        99.56620307
  Solvation  Ediel_sol  =         0.00000000
  ---------------------------------------------------
  free energy    TOTEN  =        -3.25299592 eV

  energy without entropy =       -3.02408730  energy(sigma->0) =       -3.13854161


--------------------------------------------------------------------------------------------------------




--------------------------------------- Iteration      1(  11)  ---------------------------------------


    POTLOK:  cpu time    1.3962: real time    1.3958
    SETDIJ:  cpu time    0.0138: real time    0.0138
     EDDAV:  cpu time    1.0220: real time    1.0217
       DOS:  cpu time    0.0003: real time    0.0003
    CHARGE:  cpu time    0.3972: real time    0.3971
    MIXING:  cpu time    0.0369: real time    0.0369
    --------------------------------------------
      LOOP:  cpu time    2.8663: real time    2.8655

 eigenvalue-minimisations  :    56
 total energy-change (2. order) :-0.7682941E-04  (-0.8029175E-06)
 number of electron       8.0000017 magnetization      -0.0000000
 augmentation part        0.0959345 magnetization       0.0000001

 Broyden mixing:
  rms(total) = 0.16858E-03    rms(broyden)= 0.16857E-03
  rms(prec ) = 0.30094E-03
  weight for this iteration     100.00

 eigenvalues of (default mixing * dielectric matrix)
  average eigenvalue GAMMA=   1.8629
  3.2836  2.4520  2.7385  0.9909  1.0499  0.6622

 Free energy of the ion-electron system (eV)
  ---------------------------------------------------
  alpha Z        PSCENC =         0.02887310
  Ewald energy   TEWEN  =         7.02607689
  -Hartree energ DENC   =       -68.12618891
  -exchange      EXHF   =         0.00000000
  -V(xc)+E(xc)   XCENC  =        14.66480783
  PAW double counting   =        18.13046647      -18.18960036
  entropy T*S    EENTRO =        -0.22890908
  eigenvalues    EBANDS =       -56.12480175
  atomic energy  EATOM  =        99.56620307
  Solvation  Ediel_sol  =         0.00000000
  ---------------------------------------------------
  free energy    TOTEN  =        -3.25307275 eV

  energy without entropy =       -3.02416366  energy(sigma->0) =       -3.13861820


--------------------------------------------------------------------------------------------------------




--------------------------------------- Iteration      1(  12)  ---------------------------------------


    POTLOK:  cpu time    1.3910: real time    1.3906
    SETDIJ:  cpu time    0.0135: real time    0.0135
     EDDAV:  cpu time    1.0171: real time    1.0168
       DOS:  cpu time    0.0003: real time    0.0003
    CHARGE:  cpu time    0.3976: real time    0.3975
    MIXING:  cpu time    0.0391: real time    0.0391
    --------------------------------------------
      LOOP:  cpu time    2.8586: real time    2.8578

 eigenvalue-minimisations  :    56
 total energy-change (2. order) :-0.4229833E-04  (-0.6163114E-06)
 number of electron       8.0000017 magnetization      -0.0000000
 augmentation part        0.0959389 magnetization      -0.0000003

 Broyden mixing:
  rms(total) = 0.16745E-03    rms(broyden)= 0.16744E-03
  rms(prec ) = 0.21505E-03
  weight for this iteration     100.00

 eigenvalues of (default mixing * dielectric matrix)
  average eigenvalue GAMMA=   2.1508
  4.7377  3.1280  2.5790  2.2068  1.0082  0.7510  0.6450

 Free energy of the ion-electron system (eV)
  ---------------------------------------------------
  alpha Z        PSCENC =         0.02887310
  Ewald energy   TEWEN  =         7.02607689
  -Hartree energ DENC   =       -68.10963653
  -exchange      EXHF   =         0.00000000
  -V(xc)+E(xc)   XCENC  =        14.66295625
  PAW double counting   =        18.12930025      -18.18840503
  entropy T*S    EENTRO =        -0.22891074
  eigenvalues    EBANDS =       -56.13957230
  atomic energy  EATOM  =        99.56620307
  Solvation  Ediel_sol  =         0.00000000
  ---------------------------------------------------
  free energy    TOTEN  =        -3.25311504 eV

  energy without entropy =       -3.02420431  energy(sigma->0) =       -3.13865968


--------------------------------------------------------------------------------------------------------




--------------------------------------- Iteration      1(  13)  ---------------------------------------


    POTLOK:  cpu time    1.3981: real time    1.3976
    SETDIJ:  cpu time    0.0135: real time    0.0135
     EDDAV:  cpu time    0.6973: real time    0.7260
       DOS:  cpu time    0.0003: real time    0.0003
    CHARGE:  cpu time    0.3944: real time    0.3943
    MIXING:  cpu time    0.0421: real time    0.0421
    --------------------------------------------
      LOOP:  cpu time    2.5457: real time    2.5738

 eigenvalue-minimisations  :    32
 total energy-change (2. order) :-0.1039419E-04  (-0.1460154E-06)
 number of electron       8.0000017 magnetization      -0.0000000
 augmentation part        0.0959399 magnetization       0.0000000

 Broyden mixing:
  rms(total) = 0.84235E-04    rms(broyden)= 0.84229E-04
  rms(prec ) = 0.10666E-03
  weight for this iteration     100.00

 eigenvalues of (default mixing * dielectric matrix)
  average eigenvalue GAMMA=   2.2439
  6.3111  3.2556  2.5116  2.5569  0.9895  0.9895  0.6952  0.6418

 Free energy of the ion-electron system (eV)
  ---------------------------------------------------
  alpha Z        PSCENC =         0.02887310
  Ewald energy   TEWEN  =         7.02607689
  -Hartree energ DENC   =       -68.10274376
  -exchange      EXHF   =         0.00000000
  -V(xc)+E(xc)   XCENC  =        14.66260378
  PAW double counting   =        18.14122871      -18.20036028
  entropy T*S    EENTRO =        -0.22891179
  eigenvalues    EBANDS =       -56.14609515
  atomic energy  EATOM  =        99.56620307
  Solvation  Ediel_sol  =         0.00000000
  ---------------------------------------------------
  free energy    TOTEN  =        -3.25312544 eV

  energy without entropy =       -3.02421365  energy(sigma->0) =       -3.13866954


--------------------------------------------------------------------------------------------------------




--------------------------------------- Iteration      1(  14)  ---------------------------------------


    POTLOK:  cpu time    1.3881: real time    1.3877
    SETDIJ:  cpu time    0.0138: real time    0.0138
     EDDAV:  cpu time    0.7061: real time    0.7059
       DOS:  cpu time    0.0003: real time    0.0003
    CHARGE:  cpu time    0.4067: real time    0.4066
    MIXING:  cpu time    0.0474: real time    0.0474
    --------------------------------------------
      LOOP:  cpu time    2.5624: real time    2.5617

 eigenvalue-minimisations  :    32
 total energy-change (2. order) :-0.6723073E-05  (-0.1839788E-07)
 number of electron       8.0000017 magnetization      -0.0000000
 augmentation part        0.0959404 magnetization      -0.0000000

 Broyden mixing:
  rms(total) = 0.34632E-04    rms(broyden)= 0.34628E-04
  rms(prec ) = 0.56826E-04
  weight for this iteration     100.00

 eigenvalues of (default mixing * dielectric matrix)
  average eigenvalue GAMMA=   2.2587
  7.0418  3.3352  2.6234  2.5925  1.5332  1.0337  0.8549  0.6744  0.6390

 Free energy of the ion-electron system (eV)
  ---------------------------------------------------
  alpha Z        PSCENC =         0.02887310
  Ewald energy   TEWEN  =         7.02607689
  -Hartree energ DENC   =       -68.10309613
  -exchange      EXHF   =         0.00000000
  -V(xc)+E(xc)   XCENC  =        14.66287210
  PAW double counting   =        18.14594385      -18.20509403
  entropy T*S    EENTRO =        -0.22891195
  eigenvalues    EBANDS =       -56.14599907
  atomic energy  EATOM  =        99.56620307
  Solvation  Ediel_sol  =         0.00000000
  ---------------------------------------------------
  free energy    TOTEN  =        -3.25313216 eV

  energy without entropy =       -3.02422022  energy(sigma->0) =       -3.13867619


--------------------------------------------------------------------------------------------------------




--------------------------------------- Iteration      1(  15)  ---------------------------------------


    POTLOK:  cpu time    1.3922: real time    1.3918
    SETDIJ:  cpu time    0.0133: real time    0.0420
     EDDAV:  cpu time    0.6967: real time    0.6965
       DOS:  cpu time    0.0003: real time    0.0003
    CHARGE:  cpu time    0.3963: real time    0.3962
    MIXING:  cpu time    0.0486: real time    0.0486
    --------------------------------------------
      LOOP:  cpu time    2.5475: real time    2.5754

 eigenvalue-minimisations  :    32
 total energy-change (2. order) :-0.9460300E-05  (-0.3388942E-07)
 number of electron       8.0000017 magnetization       0.0000000
 augmentation part        0.0959409 magnetization       0.0000000

 Broyden mixing:
  rms(total) = 0.23153E-04    rms(broyden)= 0.23149E-04
  rms(prec ) = 0.31606E-04
  weight for this iteration     100.00

 eigenvalues of (default mixing * dielectric matrix)
  average eigenvalue GAMMA=   2.4079
  7.9687  3.7337  3.2145  2.5206  2.5206  0.9966  1.0599  0.7680  0.6615  0.6348

 Free energy of the ion-electron system (eV)
  ---------------------------------------------------
  alpha Z        PSCENC =         0.02887310
  Ewald energy   TEWEN  =         7.02607689
  -Hartree energ DENC   =       -68.10239946
  -exchange      EXHF   =         0.00000000
  -V(xc)+E(xc)   XCENC  =        14.66286184
  PAW double counting   =        18.14361527      -18.20276151
  entropy T*S    EENTRO =        -0.22891202
  eigenvalues    EBANDS =       -56.14669880
  atomic energy  EATOM  =        99.56620307
  Solvation  Ediel_sol  =         0.00000000
  ---------------------------------------------------
  free energy    TOTEN  =        -3.25314162 eV

  energy without entropy =       -3.02422961  energy(sigma->0) =       -3.13868561


--------------------------------------------------------------------------------------------------------




--------------------------------------- Iteration      1(  16)  ---------------------------------------


    POTLOK:  cpu time    1.3939: real time    1.3934
    SETDIJ:  cpu time    0.0135: real time    0.0135
     EDDAV:  cpu time    0.7116: real time    0.7114
       DOS:  cpu time    0.0003: real time    0.0003
    CHARGE:  cpu time    0.3984: real time    0.3984
    MIXING:  cpu time    0.0530: real time    0.0530
    --------------------------------------------
      LOOP:  cpu time    2.5707: real time    2.5699

 eigenvalue-minimisations  :    32
 total energy-change (2. order) :-0.3606406E-05  (-0.1924200E-07)
 number of electron       8.0000017 magnetization       0.0000000
 augmentation part        0.0959414 magnetization       0.0000000

 Broyden mixing:
  rms(total) = 0.14281E-04    rms(broyden)= 0.14277E-04
  rms(prec ) = 0.17175E-04
  weight for this iteration     100.00

 eigenvalues of (default mixing * dielectric matrix)
  average eigenvalue GAMMA=   2.4102
  8.3278  4.3857  3.2939  2.5762  2.5762  1.4354  1.0151  0.9063  0.6999  0.6663
  0.6293

 Free energy of the ion-electron system (eV)
  ---------------------------------------------------
  alpha Z        PSCENC =         0.02887310
  Ewald energy   TEWEN  =         7.02607689
  -Hartree energ DENC   =       -68.10180001
  -exchange      EXHF   =         0.00000000
  -V(xc)+E(xc)   XCENC  =        14.66279899
  PAW double counting   =        18.14144210      -18.20058178
  entropy T*S    EENTRO =        -0.22891205
  eigenvalues    EBANDS =       -56.14724553
  atomic energy  EATOM  =        99.56620307
  Solvation  Ediel_sol  =         0.00000000
  ---------------------------------------------------
  free energy    TOTEN  =        -3.25314523 eV

  energy without entropy =       -3.02423317  energy(sigma->0) =       -3.13868920


--------------------------------------------------------------------------------------------------------




--------------------------------------- Iteration      1(  17)  ---------------------------------------


    POTLOK:  cpu time    1.4205: real time    1.4202
    SETDIJ:  cpu time    0.0133: real time    0.0133
     EDDAV:  cpu time    0.7103: real time    0.7315
       DOS:  cpu time    0.0003: real time    0.0003
    CHARGE:  cpu time    0.3976: real time    0.3975
    MIXING:  cpu time    0.0541: real time    0.0540
    --------------------------------------------
      LOOP:  cpu time    2.5962: real time    2.6169

 eigenvalue-minimisations  :    32
 total energy-change (2. order) :-0.1577970E-05  (-0.2818769E-08)
 number of electron       8.0000017 magnetization      -0.0000000
 augmentation part        0.0959416 magnetization      -0.0000000

 Broyden mixing:
  rms(total) = 0.13314E-04    rms(broyden)= 0.13312E-04
  rms(prec ) = 0.14476E-04
  weight for this iteration     100.00

 eigenvalues of (default mixing * dielectric matrix)
  average eigenvalue GAMMA=   2.5601
  9.0996  5.6994  3.2934  2.9210  2.5545  2.3899  1.0132  0.9894  0.8093  0.6631
  0.6631  0.6254

 Free energy of the ion-electron system (eV)
  ---------------------------------------------------
  alpha Z        PSCENC =         0.02887310
  Ewald energy   TEWEN  =         7.02607689
  -Hartree energ DENC   =       -68.10206016
  -exchange      EXHF   =         0.00000000
  -V(xc)+E(xc)   XCENC  =        14.66285268
  PAW double counting   =        18.14205506      -18.20119585
  entropy T*S    EENTRO =        -0.22891200
  eigenvalues    EBANDS =       -56.14703959
  atomic energy  EATOM  =        99.56620307
  Solvation  Ediel_sol  =         0.00000000
  ---------------------------------------------------
  free energy    TOTEN  =        -3.25314681 eV

  energy without entropy =       -3.02423481  energy(sigma->0) =       -3.13869081


--------------------------------------------------------------------------------------------------------




--------------------------------------- Iteration      1(  18)  ---------------------------------------


    POTLOK:  cpu time    1.3974: real time    1.3970
    SETDIJ:  cpu time    0.0133: real time    0.0133
     EDDAV:  cpu time    0.7124: real time    0.7122
       DOS:  cpu time    0.0003: real time    0.0003
    CHARGE:  cpu time    0.3977: real time    0.3976
    MIXING:  cpu time    0.0598: real time    0.0598
    --------------------------------------------
      LOOP:  cpu time    2.5809: real time    2.5802

 eigenvalue-minimisations  :    32
 total energy-change (2. order) :-0.1037022E-05  (-0.1111027E-08)
 number of electron       8.0000017 magnetization      -0.0000000
 augmentation part        0.0959415 magnetization      -0.0000000

 Broyden mixing:
  rms(total) = 0.35289E-05    rms(broyden)= 0.35283E-05
  rms(prec ) = 0.39728E-05
  weight for this iteration     100.00

 eigenvalues of (default mixing * dielectric matrix)
  average eigenvalue GAMMA=   2.4714
  9.3567  5.8229  3.3167  2.9591  2.4937  2.4937  0.9966  0.9875  0.9875  0.7534
  0.6251  0.6710  0.6645

 Free energy of the ion-electron system (eV)
  ---------------------------------------------------
  alpha Z        PSCENC =         0.02887310
  Ewald energy   TEWEN  =         7.02607689
  -Hartree energ DENC   =       -68.10235999
  -exchange      EXHF   =         0.00000000
  -V(xc)+E(xc)   XCENC  =        14.66292229
  PAW double counting   =        18.14302767      -18.20217144
  entropy T*S    EENTRO =        -0.22891192
  eigenvalues    EBANDS =       -56.14680752
  atomic energy  EATOM  =        99.56620307
  Solvation  Ediel_sol  =         0.00000000
  ---------------------------------------------------
  free energy    TOTEN  =        -3.25314784 eV

  energy without entropy =       -3.02423592  energy(sigma->0) =       -3.13869188


--------------------------------------------------------------------------------------------------------




--------------------------------------- Iteration      1(  19)  ---------------------------------------


    POTLOK:  cpu time    1.3989: real time    1.3985
    SETDIJ:  cpu time    0.0133: real time    0.0133
     EDDAV:  cpu time    0.7595: real time    0.7721
       DOS:  cpu time    0.0003: real time    0.0003
    --------------------------------------------
      LOOP:  cpu time    2.1719: real time    2.1842

 eigenvalue-minimisations  :    36
 total energy-change (2. order) :-0.1169894E-06  (-0.1049637E-09)
 number of electron       8.0000017 magnetization      -0.0000000
 augmentation part        0.0959415 magnetization      -0.0000000

 Free energy of the ion-electron system (eV)
  ---------------------------------------------------
  alpha Z        PSCENC =         0.02887310
  Ewald energy   TEWEN  =         7.02607689
  -Hartree energ DENC   =       -68.10236880
  -exchange      EXHF   =         0.00000000
  -V(xc)+E(xc)   XCENC  =        14.66292893
  PAW double counting   =        18.14309553      -18.20223972
  entropy T*S    EENTRO =        -0.22891191
  eigenvalues    EBANDS =       -56.14680505
  atomic energy  EATOM  =        99.56620307
  Solvation  Ediel_sol  =         0.00000000
  ---------------------------------------------------
  free energy    TOTEN  =        -3.25314796 eV

  energy without entropy =       -3.02423605  energy(sigma->0) =       -3.13869201


--------------------------------------------------------------------------------------------------------




 average (electrostatic) potential at core
  the test charge radii are     0.5201
  (the norm of the test charge is              1.0000)
       1 -42.6471       2 -42.6471       3 -42.6471       4 -42.6471       5 -42.6471
       6 -42.6471       7 -42.6471       8 -42.6471
 
 
 
 E-fermi :  -6.6654     XC(G=0):  -0.4476     alpha+bet : -0.0409


 spin component 1

 k-point     1 :       0.0000    0.0000    0.0000
  band No.  band energies     occupation 
      1      -7.2399      0.99998
      2      -7.0846      0.99848
      3      -7.0846      0.99848
      4      -6.6658      0.50134
      5      -6.6658      0.50133
      6      -6.1639      0.00020
      7      -6.1639      0.00020
      8      -5.9190      0.00000
      9      -0.1301      0.00000
     10      -0.0112      0.00000
     11      -0.0112      0.00000
     12       0.1212      0.00000

 spin component 2

 k-point     1 :       0.0000    0.0000    0.0000
  band No.  band energies     occupation 
      1      -7.2399      0.99998
      2      -7.0846      0.99848
      3      -7.0846      0.99848
      4      -6.6658      0.50134
      5      -6.6658      0.50133
      6      -6.1639      0.00020
      7      -6.1639      0.00020
      8      -5.9190      0.00000
      9      -0.1300      0.00000
     10      -0.0112      0.00000
     11      -0.0112      0.00000
     12       0.1213      0.00000


--------------------------------------------------------------------------------------------------------


 soft charge-density along one line, spin component           1
         0         1         2         3         4         5         6         7         8         9
 total charge-density along one line
 
 soft charge-density along one line, spin component           2
         0         1         2         3         4         5         6         7         8         9
 total charge-density along one line
 
 pseudopotential strength for first ion, spin component:           1
 -2.371  -4.088  -0.000   0.000  -0.000
 -4.088  -6.963  -0.000   0.000   0.000
 -0.000  -0.000  -0.347   0.000   0.000
  0.000   0.000   0.000  -0.347   0.000
 -0.000   0.000   0.000   0.000  -0.347
 pseudopotential strength for first ion, spin component:           2
 -2.371  -4.088  -0.000   0.000  -0.000
 -4.088  -6.963  -0.000   0.000  -0.000
 -0.000  -0.000  -0.347   0.000   0.000
  0.000   0.000   0.000  -0.347   0.000
 -0.000  -0.000   0.000   0.000  -0.347
 total augmentation occupancy for first ion, spin component:           1
  1.384  -0.147   0.000   0.000   0.000
 -0.147   0.016   0.000   0.000  -0.000
  0.000   0.000   0.000   0.000   0.000
  0.000   0.000   0.000   0.000   0.000
  0.000  -0.000   0.000   0.000   0.000
 total augmentation occupancy for first ion, spin component:           2
  0.000  -0.000   0.000   0.000   0.000
 -0.000   0.000  -0.000   0.000  -0.000
 -0.000  -0.000   0.000  -0.000   0.000
  0.000   0.000   0.000   0.000   0.000
  0.000   0.000   0.000  -0.000   0.000


------------------------ aborting loop because EDIFF is reached ----------------------------------------


    CHARGE:  cpu time    0.4066: real time    0.4065
    FORLOC:  cpu time    0.0529: real time    0.0529
    FORNL :  cpu time    0.1128: real time    0.1128
    STRESS:  cpu time    0.4550: real time    0.4549
    FORHAR:  cpu time    0.1424: real time    0.1424
    MIXING:  cpu time    0.0632: real time    0.0632
    OFIELD:  cpu time    0.0001: real time    0.0001

  FORCE on cell =-STRESS in cart. coord.  units (eV):
  Direction    XX          YY          ZZ          XY          YZ          ZX
  --------------------------------------------------------------------------------------
  Alpha Z     0.02887     0.02887     0.02887
  Ewald     -19.19972   -19.19972    45.42550     0.00000    -0.00000    -0.00000
  Hartree     4.28688     4.28688    59.52860    -0.00000    -0.00000    -0.00000
  E(xc)     -16.89105   -16.89105   -16.40442     0.00000     0.00000    -0.00000
  Local     -13.95965   -13.95965  -134.92653     0.00000    -0.00000    -0.00000
  n-local   -12.87901   -12.87901   -12.93605    -0.00000     0.00000    -0.00000
  augment     0.62690     0.62690     0.62819     0.00000     0.00000     0.00000
  Kinetic    57.10862    57.10862    46.25869     0.00000     0.00000    -0.00000
  Fock        0.00000     0.00000     0.00000     0.00000     0.00000     0.00000
  -------------------------------------------------------------------------------------
  Total      -0.87815    -0.87815   -12.39714    -0.00000    -0.00000    -0.00000
  in kB      -0.26055    -0.26055    -3.67823    -0.00000    -0.00000    -0.00000
  external pressure =       -1.40 kB  Pullay stress =        0.00 kB


 VOLUME and BASIS-vectors are now :
 -----------------------------------------------------------------------------
  energy-cutoff  :      300.00
  volume of cell :     5400.00
      direct lattice vectors                 reciprocal lattice vectors
    15.000000000  0.000000000  0.000000000     0.066666667 -0.000000000  0.000000000
     0.000000000 15.000000000  0.000000000     0.000000000  0.066666667  0.000000000
     0.000000000  0.000000000 24.000000000    -0.000000000 -0.000000000  0.041666667

  length of vectors
    15.000000000 15.000000000 24.000000000     0.066666667  0.066666667  0.041666667


 FORCES acting on ions
    electron-ion (+dipol)            ewald-force                    non-local-force                 convergence-correction
 -----------------------------------------------------------------------------------------------
   0.738E-17 -.145E-16 -.488E-16   0.176E-17 -.180E-17 -.222E-15   0.149E-26 -.141E-26 0.000E+00   0.954E-16 -.209E-15 -.408E-16
   0.505E-18 -.223E-16 0.496E-14   0.551E-18 -.108E-17 0.555E-16   -.121E-26 -.182E-26 0.129E-25   0.103E-15 -.191E-15 0.519E-16
   0.755E-17 -.163E-16 0.968E-14   0.171E-18 0.515E-18 0.222E-15   -.340E-27 0.141E-26 0.000E+00   0.922E-16 -.197E-15 -.667E-15
   0.253E-17 -.204E-16 0.151E-13   0.388E-18 0.786E-18 0.159E-15   -.256E-27 0.884E-28 0.258E-25   0.966E-16 -.195E-15 0.823E-17
   0.571E-17 -.159E-16 0.198E-13   0.778E-18 0.480E-18 0.167E-15   0.553E-27 0.000E+00 -.258E-25   0.944E-16 -.195E-15 0.288E-15
   0.529E-17 -.182E-16 0.305E-13   0.994E-18 0.751E-18 0.222E-15   -.353E-27 -.606E-27 -.323E-25   0.102E-15 -.193E-15 0.263E-15
   0.483E-17 -.199E-16 0.302E-13   0.615E-18 0.235E-17 0.000E+00   -.506E-27 -.707E-27 0.000E+00   0.940E-16 -.194E-15 -.167E-15
   0.243E-17 -.205E-16 0.296E-13   -.591E-18 0.307E-17 -.222E-15   -.742E-27 0.252E-28 -.129E-25   0.990E-16 -.199E-15 0.429E-15
 -----------------------------------------------------------------------------------------------
   0.362E-16 -.148E-15 0.140E-12   0.466E-17 0.506E-17 0.381E-15   -.137E-26 -.302E-26 -.323E-25   0.777E-15 -.157E-14 0.165E-15
 
 
 POSITION                                       TOTAL-FORCE (eV/Angst)
 -----------------------------------------------------------------------------------
      0.00000      0.00000      0.00000         0.000000     -0.000000     -0.000000
      0.00000      0.00000      3.00000         0.000000     -0.000000      0.000000
      0.00000      0.00000      6.00000        -0.000000      0.000000     -0.000000
      0.00000      0.00000      9.00000        -0.000000     -0.000000      0.000000
      0.00000      0.00000     12.00000         0.000000     -0.000000     -0.000000
      0.00000      0.00000     15.00000        -0.000000      0.000000      0.000000
      0.00000      0.00000     18.00000        -0.000000     -0.000000     -0.000000
      0.00000      0.00000     21.00000        -0.000000      0.000000      0.000000
 -----------------------------------------------------------------------------------
    total drift:                                0.000000     -0.000000      0.000000


--------------------------------------------------------------------------------------------------------



  FREE ENERGIE OF THE ION-ELECTRON SYSTEM (eV)
  ---------------------------------------------------
  free  energy   TOTEN  =        -3.25314796 eV

  energy  without entropy=       -3.02423605  energy(sigma->0) =       -3.13869201
 


--------------------------------------------------------------------------------------------------------


    POTLOK:  cpu time    1.4251: real time    1.4247


--------------------------------------------------------------------------------------------------------


     LOOP+:  cpu time   47.5251: real time   47.6212
    4ORBIT:  cpu time    0.0000: real time    0.0000

 total amount of memory used by VASP MPI-rank0   178198. kBytes
=======================================================================

   base      :      30000. kBytes
   nonl-proj :      10675. kBytes
   fftplans  :      31720. kBytes
   grid      :      99680. kBytes
   one-center:         19. kBytes
   wavefun   :       6104. kBytes
 
  
  
 General timing and accounting informations for this job:
 ========================================================
  
                  Total CPU time used (sec):       49.062
                            User time (sec):       47.131
                          System time (sec):        1.931
                         Elapsed time (sec):       49.532
  
                   Maximum memory used (kb):      389900.
                   Average memory used (kb):           0.
  
                          Minor page faults:       584743
                          Major page faults:            0
                 Voluntary context switches:         1301
