<?xml version="1.0" encoding="ISO-8859-1"?>
<modeling>
 <generator>
  <i name="program" type="string">vasp </i>
  <i name="version" type="string">5.4.4.18Apr17-6-g9f103f2a35  </i>
  <i name="subversion" type="string">(build Aug 24 2024 05:40:03) complex            parallel </i>
  <i name="platform" type="string">IFC22_IMPI </i>
  <i name="date" type="string">2024 11 22 </i>
  <i name="time" type="string">21:50:09 </i>
 </generator>
 <incar>
  <i type="string" name="PREC">normal</i>
  <i type="int" name="ISPIN">     2</i>
  <i type="int" name="ICHARG">     2</i>
  <i type="int" name="NELM">   100</i>
  <i name="EDIFF">      0.00000100</i>
  <i type="int" name="NSW">     0</i>
  <i name="ENCUT">    300.00000000</i>
  <i name="NUPDOWN">      0.00000000</i>
  <i type="int" name="ISMEAR">     0</i>
  <i name="SIGMA">      0.20000000</i>
  <i type="logical" name="LWAVE"> F  </i>
  <i type="logical" name="LCHARG"> F  </i>
  <v type="int" name="KPOINT_BSE">    -1     0     0     0</v>
  <i type="int" name="NELM">   100</i>
 </incar>
 <structure name="primitive_cell" >
  <crystal>
   <varray name="basis" >
    <v>      15.00000000       0.00000000       0.00000000 </v>
    <v>       0.00000000      15.00000000       0.00000000 </v>
    <v>       0.00000000       0.00000000       3.00000000 </v>
   </varray>
   <i name="volume">    675.00000000 </i>
   <varray name="rec_basis" >
    <v>       0.06666667      -0.00000000       0.00000000 </v>
    <v>       0.00000000       0.06666667       0.00000000 </v>
    <v>      -0.00000000      -0.00000000       0.33333333 </v>
   </varray>
  </crystal>
  <varray name="positions" >
   <v>       0.00000000       0.00000000       0.00000000 </v>
  </varray>
 </structure>
 <varray name="primitive_index" >
  <v type="int" >        1 </v>
 </varray>
 <kpoints>
  <generation param="Gamma">
   <v type="int" name="divisions">       1        1        1 </v>
   <v name="usershift">      0.00000000       0.00000000       0.00000000 </v>
   <v name="genvec1">      1.00000000      -0.00000000       0.00000000 </v>
   <v name="genvec2">      0.00000000       1.00000000       0.00000000 </v>
   <v name="genvec3">     -0.00000000      -0.00000000       1.00000000 </v>
   <v name="shift">      0.00000000       0.00000000       0.00000000 </v>
  </generation>
  <varray name="kpointlist" >
   <v>       0.00000000       0.00000000       0.00000000 </v>
  </varray>
  <varray name="weights" >
   <v>       1.00000000 </v>
  </varray>
 </kpoints>
 <parameters>
  <separator name="general" >
   <i type="string" name="SYSTEM">unknown system</i>
   <i type="logical" name="LCOMPAT"> F  </i>
  </separator>
  <separator name="electronic" >
   <i type="string" name="PREC">normal</i>
   <i name="ENMAX">    300.00000000</i>
   <i name="ENAUG">    400.00000000</i>
   <i name="EDIFF">      0.00000100</i>
   <i type="int" name="IALGO">    38</i>
   <i type="int" name="IWAVPR">    10</i>
   <i type="int" name="NBANDS">    12</i>
   <i name="NELECT">      8.00000000</i>
   <i type="int" name="TURBO">     0</i>
   <i type="int" name="IRESTART">     0</i>
   <i type="int" name="NREBOOT">     0</i>
   <i type="int" name="NMIN">     0</i>
   <i name="EREF">      0.00000000</i>
   <separator name="electronic smearing" >
    <i type="int" name="ISMEAR">     0</i>
    <i name="SIGMA">      0.20000000</i>
    <i name="KSPACING">      0.50000000</i>
    <i type="logical" name="KGAMMA"> T  </i>
   </separator>
   <separator name="electronic projectors" >
    <i type="logical" name="LREAL"> F  </i>
    <v name="ROPT">      0.00000000</v>
    <i type="int" name="LMAXPAW">  -100</i>
    <i type="int" name="LMAXMIX">     2</i>
    <i type="logical" name="NLSPLINE"> F  </i>
   </separator>
   <separator name="electronic startup" >
    <i type="int" name="ISTART">     0</i>
    <i type="int" name="ICHARG">     2</i>
    <i type="int" name="INIWAV">     1</i>
   </separator>
   <separator name="electronic spin" >
    <i type="int" name="ISPIN">     2</i>
    <i type="logical" name="LNONCOLLINEAR"> F  </i>
    <v name="MAGMOM">      0.00000000      0.00000000      0.00000000      0.00000000      0.00000000      0.00000000      0.00000000      0.00000000</v>
    <i name="NUPDOWN">      0.00000000</i>
    <i type="logical" name="LSORBIT"> F  </i>
    <v name="SAXIS">      0.00000000      0.00000000      1.00000000</v>
    <i type="logical" name="LSPIRAL"> F  </i>
    <v name="QSPIRAL">      0.00000000      0.00000000      0.00000000</v>
    <i type="logical" name="LZEROZ"> F  </i>
   </separator>
   <separator name="electronic exchange-correlation" >
    <i type="logical" name="LASPH"> F  </i>
    <i type="logical" name="LMETAGGA"> F  </i>
   </separator>
   <separator name="electronic convergence" >
    <i type="int" name="NELM">   100</i>
    <i type="int" name="NELMDL">    -5</i>
    <i type="int" name="NELMIN">     2</i>
    <i name="ENINI">    300.00000000</i>
    <separator name="electronic convergence detail" >
     <i type="logical" name="LDIAG"> T  </i>
     <i type="logical" name="LSUBROT"> F  </i>
     <i name="WEIMIN">      0.00000000</i>
     <i name="EBREAK">      0.00000002</i>
     <i name="DEPER">      0.30000000</i>
     <i type="int" name="NRMM">     4</i>
     <i name="TIME">      0.40000000</i>
    </separator>
   </separator>
   <separator name="electronic mixer" >
    <i name="AMIX">      0.40000000</i>
    <i name="BMIX">      1.00000000</i>
    <i name="AMIN">      0.10000000</i>
    <i name="AMIX_MAG">      1.60000000</i>
    <i name="BMIX_MAG">      1.00000000</i>
    <separator name="electronic mixer details" >
     <i type="int" name="IMIX">     4</i>
     <i type="logical" name="MIXFIRST"> F  </i>
     <i type="int" name="MAXMIX">   -45</i>
     <i name="WC">    100.00000000</i>
     <i type="int" name="INIMIX">     1</i>
     <i type="int" name="MIXPRE">     1</i>
     <i type="int" name="MREMOVE">     5</i>
    </separator>
   </separator>
   <separator name="electronic dipolcorrection" >
    <i type="logical" name="LDIPOL"> F  </i>
    <i type="logical" name="LMONO"> F  </i>
    <i type="int" name="IDIPOL">     0</i>
    <i name="EPSILON">      1.00000000</i>
    <v name="DIPOL">   -100.00000000   -100.00000000   -100.00000000</v>
    <i name="EFIELD">      0.00000000</i>
   </separator>
  </separator>
  <separator name="grids" >
   <i type="int" name="NGX">    64</i>
   <i type="int" name="NGY">    64</i>
   <i type="int" name="NGZ">   108</i>
   <i type="int" name="NGXF">   128</i>
   <i type="int" name="NGYF">   128</i>
   <i type="int" name="NGZF">   216</i>
   <i type="logical" name="ADDGRID"> F  </i>
  </separator>
  <separator name="ionic" >
   <i type="int" name="NSW">     0</i>
   <i type="int" name="IBRION">    -1</i>
   <i type="int" name="MDALGO">     0</i>
   <i type="int" name="ISIF">     2</i>
   <i name="PSTRESS">      0.00000000</i>
   <i name="EDIFFG">      0.00001000</i>
   <i type="int" name="NFREE">     0</i>
   <i name="POTIM">      0.50000000</i>
   <i name="SMASS">     -3.00000000</i>
   <i name="SCALEE">      1.00000000</i>
  </separator>
  <separator name="ionic md" >
   <i name="TEBEG">      0.00010000</i>
   <i name="TEEND">      0.00010000</i>
   <i type="int" name="NBLOCK">     1</i>
   <i type="int" name="KBLOCK">     1</i>
   <i type="int" name="NPACO">   256</i>
   <i name="APACO">     16.00000000</i>
  </separator>
  <separator name="symmetry" >
   <i type="int" name="ISYM">     2</i>
   <i name="SYMPREC">      0.00001000</i>
  </separator>
  <separator name="dos" >
   <i type="int" name="LORBIT">     0</i>
   <v name="RWIGS">     -1.00000000</v>
   <i type="int" name="NEDOS">   301</i>
   <i name="EMIN">     10.00000000</i>
   <i name="EMAX">    -10.00000000</i>
   <i name="EFERMI">      0.00000000</i>
  </separator>
  <separator name="writing" >
   <i type="int" name="NWRITE">     2</i>
   <i type="logical" name="LWAVE"> F  </i>
   <i type="logical" name="LDOWNSAMPLE"> F  </i>
   <i type="logical" name="LCHARG"> F  </i>
   <i type="logical" name="LPARD"> F  </i>
   <i type="logical" name="LVTOT"> F  </i>
   <i type="logical" name="LVHAR"> F  </i>
   <i type="logical" name="LELF"> F  </i>
   <i type="logical" name="LOPTICS"> F  </i>
   <v name="STM">      0.00000000      0.00000000      0.00000000      0.00000000      0.00000000      0.00000000      0.00000000</v>
  </separator>
  <separator name="performance" >
   <i type="int" name="NPAR">     4</i>
   <i type="int" name="NSIM">     4</i>
   <i type="int" name="NBLK">    -1</i>
   <i type="logical" name="LPLANE"> T  </i>
   <i type="logical" name="LSCALAPACK"> T  </i>
   <i type="logical" name="LSCAAWARE"> F  </i>
   <i type="logical" name="LSCALU"> F  </i>
   <i type="logical" name="LASYNC"> F  </i>
   <i type="logical" name="LORBITALREAL"> F  </i>
  </separator>
  <separator name="miscellaneous" >
   <i type="int" name="IDIOT">     3</i>
   <i type="int" name="ISPECIAL">     0</i>
   <i type="logical" name="LMUSIC"> F  </i>
   <v name="POMASS">      1.00000000</v>
   <v name="DARWINR">      0.00000000</v>
   <v name="DARWINV">      1.00000000</v>
   <i type="logical" name="LCORR"> T  </i>
  </separator>
  <i type="logical" name="GGA_COMPAT"> T  </i>
  <i type="logical" name="LBERRY"> F  </i>
  <i type="int" name="ICORELEVEL">     0</i>
  <i type="logical" name="LDAU"> F  </i>
  <i type="int" name="I_CONSTRAINED_M">     0</i>
  <separator name="electronic exchange-correlation" >
   <i type="string" name="GGA">--</i>
   <i type="int" name="VOSKOWN">     0</i>
   <i type="logical" name="LHFCALC"> F  </i>
   <i type="string" name="PRECFOCK"></i>
   <i type="logical" name="LSYMGRAD"> F  </i>
   <i type="logical" name="LHFONE"> F  </i>
   <i type="logical" name="LRHFCALC"> F  </i>
   <i type="logical" name="LTHOMAS"> F  </i>
   <i type="logical" name="LMODELHF"> F  </i>
   <i name="ENCUT4O">     -1.00000000</i>
   <i type="int" name="EXXOEP">     0</i>
   <i type="int" name="FOURORBIT">     0</i>
   <i name="AEXX">      0.00000000</i>
   <i name="HFALPHA">      0.00000000</i>
   <i name="MCALPHA">      0.00000000</i>
   <i name="ALDAX">      1.00000000</i>
   <i name="AGGAX">      1.00000000</i>
   <i name="ALDAC">      1.00000000</i>
   <i name="AGGAC">      1.00000000</i>
   <i type="int" name="NKREDX">     1</i>
   <i type="int" name="NKREDY">     1</i>
   <i type="int" name="NKREDZ">     1</i>
   <i type="logical" name="SHIFTRED"> F  </i>
   <i type="logical" name="ODDONLY"> F  </i>
   <i type="logical" name="EVENONLY"> F  </i>
   <i type="int" name="LMAXFOCK">     0</i>
   <i type="int" name="NMAXFOCKAE">     0</i>
   <i type="logical" name="LFOCKAEDFT"> F  </i>
   <i name="HFSCREEN">      0.00000000</i>
   <i name="HFSCREENC">      0.00000000</i>
   <i type="int" name="NBANDSGWLOW">     0</i>
  </separator>
  <separator name="vdW DFT" >
   <i type="logical" name="LUSE_VDW"> F  </i>
   <i name="Zab_VDW">     -0.84910000</i>
   <i name="PARAM1">      0.12340000</i>
   <i name="PARAM2">      1.00000000</i>
   <i name="PARAM3">      0.00000000</i>
  </separator>
  <separator name="model GW" >
   <i type="int" name="MODEL_GW">     0</i>
   <i name="MODEL_EPS0">    405.00000000</i>
   <i name="MODEL_ALPHA">      1.00000000</i>
  </separator>
  <separator name="linear response parameters" >
   <i type="logical" name="LEPSILON"> F  </i>
   <i type="logical" name="LRPA"> F  </i>
   <i type="logical" name="LNABLA"> F  </i>
   <i type="logical" name="LVEL"> F  </i>
   <i type="int" name="KINTER">     0</i>
   <i name="CSHIFT">      0.10000000</i>
   <i name="OMEGAMAX">     -1.00000000</i>
   <i name="DEG_THRESHOLD">      0.00200000</i>
   <i name="RTIME">     -0.10000000</i>
   <i name="WPLASMAI">      0.00000000</i>
   <v name="DFIELD">      0.00000000      0.00000000      0.00000000</v>
   <v name="WPLASMA">      0.00000000      0.00000000      0.00000000      0.00000000      0.00000000      0.00000000      0.00000000      0.00000000      0.00000000</v>
  </separator>
  <separator name="orbital magnetization" >
   <i type="logical" name="NUCIND"> F  </i>
   <v name="MAGPOS">      0.00000000      0.00000000      0.00000000</v>
   <i type="logical" name="LNICSALL"> T  </i>
   <i type="logical" name="ORBITALMAG"> F  </i>
   <i type="logical" name="LMAGBLOCH"> F  </i>
   <i type="logical" name="LCHIMAG"> F  </i>
   <i type="logical" name="LGAUGE"> T  </i>
   <i type="int" name="MAGATOM">     0</i>
   <v name="MAGDIPOL">      0.00000000      0.00000000      0.00000000</v>
   <v name="AVECCONST">      0.00000000      0.00000000      0.00000000</v>
  </separator>
  <separator name="response functions" >
   <i type="logical" name="LADDER"> F  </i>
   <i type="logical" name="LRPAFORCE"> F  </i>
   <i type="logical" name="LFXC"> F  </i>
   <i type="logical" name="LHARTREE"> T  </i>
   <i type="int" name="IBSE">     0</i>
   <v type="int" name="KPOINT">    -1     0     0     0</v>
   <i type="logical" name="LTCTE"> F  </i>
   <i type="logical" name="LTETE"> F  </i>
   <i type="logical" name="LTRIPLET"> F  </i>
   <i type="logical" name="LFXCEPS"> F  </i>
   <i type="logical" name="LFXHEG"> F  </i>
   <i type="int" name="NATURALO">     2</i>
   <i type="logical" name="L2ORDER"> F  </i>
   <i type="logical" name="LMP2LT"> F  </i>
   <i type="logical" name="LUSEW"> F  </i>
   <i name="ENCUTGW">     -2.00000000</i>
   <i name="ENCUTGWSOFT">     -2.00000000</i>
   <i name="ENCUTLF">     -1.00000000</i>
   <i type="int" name="LMAXMP2">    -1</i>
   <i name="SCISSOR">      0.00000000</i>
   <i type="int" name="NOMEGA">     0</i>
   <i type="int" name="NOMEGAR">     0</i>
   <i type="int" name="NBANDSGW">    -1</i>
   <i type="int" name="NBANDSO">    -1</i>
   <i type="int" name="NBANDSV">    -1</i>
   <i type="int" name="NELM">   100</i>
   <i type="int" name="NELMHF">     1</i>
   <i type="int" name="DIM">     3</i>
   <i type="int" name="ANTIRES">     0</i>
   <i name="OMEGAMAX">    -30.00000000</i>
   <i name="OMEGAMIN">    -30.00000000</i>
   <i name="OMEGATL">   -200.00000000</i>
   <i type="int" name="OMEGAGRID">   140</i>
   <i name="CSHIFT">     -0.10000000</i>
   <i type="logical" name="SELFENERGY"> F  </i>
   <i type="logical" name="LSPECTRAL"> F  </i>
   <i type="logical" name="LSPECTRALGW"> F  </i>
   <i type="logical" name="LSINGLES"> F  </i>
   <i type="logical" name="LFERMIGW"> F  </i>
   <i type="logical" name="ODDONLYGW"> F  </i>
   <i type="logical" name="EVENONLYGW"> F  </i>
   <i type="int" name="NKREDLFX">     1</i>
   <i type="int" name="NKREDLFY">     1</i>
   <i type="int" name="NKREDLFZ">     1</i>
   <i type="int" name="MAXMEM">  2800</i>
   <i type="int" name="TELESCOPE">     0</i>
   <i type="int" name="TAUPAR">     1</i>
   <i type="int" name="OMEGAPAR">    -1</i>
   <i name="LAMBDA">      1.00000000</i>
  </separator>
  <separator name="External order field" >
   <i name="OFIELD_KAPPA">      0.00000000</i>
   <v name="OFIELD_K">      0.00000000      0.00000000      0.00000000</v>
   <i name="OFIELD_Q6_NEAR">      0.00000000</i>
   <i name="OFIELD_Q6_FAR">      0.00000000</i>
   <i name="OFIELD_A">      0.00000000</i>
  </separator>
 </parameters>
 <atominfo>
  <atoms>       8 </atoms>
  <types>       1 </types>
  <array name="atoms" >
   <dimension dim="1">ion</dimension>
   <field type="string">element</field>
   <field type="int">atomtype</field>
   <set>
    <rc><c>H </c><c>   1</c></rc>
    <rc><c>H </c><c>   1</c></rc>
    <rc><c>H </c><c>   1</c></rc>
    <rc><c>H </c><c>   1</c></rc>
    <rc><c>H </c><c>   1</c></rc>
    <rc><c>H </c><c>   1</c></rc>
    <rc><c>H </c><c>   1</c></rc>
    <rc><c>H </c><c>   1</c></rc>
   </set>
  </array>
  <array name="atomtypes" >
   <dimension dim="1">type</dimension>
   <field type="int">atomspertype</field>
   <field type="string">element</field>
   <field>mass</field>
   <field>valence</field>
   <field type="string">pseudopotential</field>
   <set>
    <rc><c>   8</c><c>H </c><c>      1.00000000</c><c>      1.00000000</c><c>  PAW_PBE H 15Jun2001                   </c></rc>
   </set>
  </array>
 </atominfo>
 <structure name="initialpos" >
  <crystal>
   <varray name="basis" >
    <v>      15.00000000       0.00000000       0.00000000 </v>
    <v>       0.00000000      15.00000000       0.00000000 </v>
    <v>       0.00000000       0.00000000      24.00000000 </v>
   </varray>
   <i name="volume">   5400.00000000 </i>
   <varray name="rec_basis" >
    <v>       0.06666667      -0.00000000       0.00000000 </v>
    <v>       0.00000000       0.06666667       0.00000000 </v>
    <v>      -0.00000000      -0.00000000       0.04166667 </v>
   </varray>
  </crystal>
  <varray name="positions" >
   <v>       0.00000000       0.00000000       0.00000000 </v>
   <v>       0.00000000       0.00000000       0.12500000 </v>
   <v>       0.00000000       0.00000000       0.25000000 </v>
   <v>       0.00000000       0.00000000       0.37500000 </v>
   <v>       0.00000000       0.00000000       0.50000000 </v>
   <v>       0.00000000       0.00000000       0.62500000 </v>
   <v>       0.00000000       0.00000000       0.75000000 </v>
   <v>       0.00000000       0.00000000       0.87500000 </v>
  </varray>
 </structure>
 <calculation>
  <scstep>
   <time name="dav">    0.91    0.91</time>
   <time name="total">    2.32    2.32</time>
   <energy>
    <i name="alphaZ">      0.02887310 </i>
    <i name="ewald">      7.02607689 </i>
    <i name="hartreedc">    -70.31291632 </i>
    <i name="XCdc">     15.18358118 </i>
    <i name="pawpsdc">     17.07221949 </i>
    <i name="pawaedc">    -17.14324176 </i>
    <i name="eentropy">     -0.00000000 </i>
    <i name="bandstr">    -34.34716527 </i>
    <i name="atom">     99.56620307 </i>
    <i name="e_fr_energy">     17.07363037 </i>
    <i name="e_wo_entrp">     17.07363037 </i>
    <i name="e_0_energy">     17.07363037 </i>
   </energy>
  </scstep>
  <scstep>
   <time name="dav">    1.38    1.38</time>
   <time name="total">    1.38    1.38</time>
   <energy>
    <i name="e_fr_energy">     -1.71313826 </i>
    <i name="e_wo_entrp">     -1.71023896 </i>
    <i name="e_0_energy">     -1.71168861 </i>
   </energy>
  </scstep>
  <scstep>
   <time name="dav">    1.11    1.11</time>
   <time name="total">    1.11    1.11</time>
   <energy>
    <i name="e_fr_energy">     -3.11152899 </i>
    <i name="e_wo_entrp">     -2.89981736 </i>
    <i name="e_0_energy">     -3.00567317 </i>
   </energy>
  </scstep>
  <scstep>
   <time name="dav">    1.10    1.10</time>
   <time name="total">    1.10    1.10</time>
   <energy>
    <i name="e_fr_energy">     -3.23555645 </i>
    <i name="e_wo_entrp">     -3.00663309 </i>
    <i name="e_0_energy">     -3.12109477 </i>
   </energy>
  </scstep>
  <scstep>
   <time name="dav">    0.94    0.94</time>
   <time name="total">    1.38    1.38</time>
   <energy>
    <i name="e_fr_energy">     -3.23716355 </i>
    <i name="e_wo_entrp">     -3.00819837 </i>
    <i name="e_0_energy">     -3.12268096 </i>
   </energy>
  </scstep>
  <scstep>
   <time name="dav">    1.02    1.02</time>
   <time name="total">    2.89    2.89</time>
   <energy>
    <i name="e_fr_energy">     -3.23547217 </i>
    <i name="e_wo_entrp">     -3.00647942 </i>
    <i name="e_0_energy">     -3.12097580 </i>
   </energy>
  </scstep>
  <scstep>
   <time name="dav">    0.91    0.93</time>
   <time name="total">    2.76    2.78</time>
   <energy>
    <i name="e_fr_energy">     -3.25098490 </i>
    <i name="e_wo_entrp">     -3.02199058 </i>
    <i name="e_0_energy">     -3.13648774 </i>
   </energy>
  </scstep>
  <scstep>
   <time name="dav">    1.02    1.02</time>
   <time name="total">    2.86    2.86</time>
   <energy>
    <i name="e_fr_energy">     -3.25275566 </i>
    <i name="e_wo_entrp">     -3.02383162 </i>
    <i name="e_0_energy">     -3.13829364 </i>
   </energy>
  </scstep>
  <scstep>
   <time name="dav">    1.02    1.02</time>
   <time name="total">    2.87    2.87</time>
   <energy>
    <i name="e_fr_energy">     -3.25293468 </i>
    <i name="e_wo_entrp">     -3.02402479 </i>
    <i name="e_0_energy">     -3.13847973 </i>
   </energy>
  </scstep>
  <scstep>
   <time name="dav">    1.03    1.03</time>
   <time name="total">    2.88    2.88</time>
   <energy>
    <i name="e_fr_energy">     -3.25299592 </i>
    <i name="e_wo_entrp">     -3.02408730 </i>
    <i name="e_0_energy">     -3.13854161 </i>
   </energy>
  </scstep>
  <scstep>
   <time name="dav">    1.02    1.02</time>
   <time name="total">    2.87    2.87</time>
   <energy>
    <i name="e_fr_energy">     -3.25307275 </i>
    <i name="e_wo_entrp">     -3.02416366 </i>
    <i name="e_0_energy">     -3.13861820 </i>
   </energy>
  </scstep>
  <scstep>
   <time name="dav">    1.02    1.02</time>
   <time name="total">    2.86    2.86</time>
   <energy>
    <i name="e_fr_energy">     -3.25311504 </i>
    <i name="e_wo_entrp">     -3.02420431 </i>
    <i name="e_0_energy">     -3.13865968 </i>
   </energy>
  </scstep>
  <scstep>
   <time name="dav">    0.70    0.73</time>
   <time name="total">    2.55    2.57</time>
   <energy>
    <i name="e_fr_energy">     -3.25312544 </i>
    <i name="e_wo_entrp">     -3.02421365 </i>
    <i name="e_0_energy">     -3.13866954 </i>
   </energy>
  </scstep>
  <scstep>
   <time name="dav">    0.71    0.71</time>
   <time name="total">    2.56    2.56</time>
   <energy>
    <i name="e_fr_energy">     -3.25313216 </i>
    <i name="e_wo_entrp">     -3.02422022 </i>
    <i name="e_0_energy">     -3.13867619 </i>
   </energy>
  </scstep>
  <scstep>
   <time name="dav">    0.70    0.70</time>
   <time name="total">    2.55    2.58</time>
   <energy>
    <i name="e_fr_energy">     -3.25314162 </i>
    <i name="e_wo_entrp">     -3.02422961 </i>
    <i name="e_0_energy">     -3.13868561 </i>
   </energy>
  </scstep>
  <scstep>
   <time name="dav">    0.71    0.71</time>
   <time name="total">    2.57    2.57</time>
   <energy>
    <i name="e_fr_energy">     -3.25314523 </i>
    <i name="e_wo_entrp">     -3.02423317 </i>
    <i name="e_0_energy">     -3.13868920 </i>
   </energy>
  </scstep>
  <scstep>
   <time name="dav">    0.71    0.73</time>
   <time name="total">    2.60    2.62</time>
   <energy>
    <i name="e_fr_energy">     -3.25314681 </i>
    <i name="e_wo_entrp">     -3.02423481 </i>
    <i name="e_0_energy">     -3.13869081 </i>
   </energy>
  </scstep>
  <scstep>
   <time name="dav">    0.71    0.71</time>
   <time name="total">    2.58    2.58</time>
   <energy>
    <i name="e_fr_energy">     -3.25314784 </i>
    <i name="e_wo_entrp">     -3.02423592 </i>
    <i name="e_0_energy">     -3.13869188 </i>
   </energy>
  </scstep>
  <scstep>
   <time name="dav">    0.76    0.77</time>
   <time name="total">    2.17    2.18</time>
   <energy>
    <i name="alphaZ">      0.02887310 </i>
    <i name="ewald">      7.02607689 </i>
    <i name="hartreedc">    -68.10236880 </i>
    <i name="XCdc">     14.66292893 </i>
    <i name="pawpsdc">     18.14309553 </i>
    <i name="pawaedc">    -18.20223972 </i>
    <i name="eentropy">     -0.22891191 </i>
    <i name="bandstr">    -56.14680505 </i>
    <i name="atom">     99.56620307 </i>
    <i name="e_fr_energy">     -3.25314796 </i>
    <i name="e_wo_entrp">     -3.02423605 </i>
    <i name="e_0_energy">     -3.13869201 </i>
   </energy>
  </scstep>
  <structure>
   <crystal>
    <varray name="basis" >
     <v>      15.00000000       0.00000000       0.00000000 </v>
     <v>       0.00000000      15.00000000       0.00000000 </v>
     <v>       0.00000000       0.00000000      24.00000000 </v>
    </varray>
    <i name="volume">   5400.00000000 </i>
    <varray name="rec_basis" >
     <v>       0.06666667      -0.00000000       0.00000000 </v>
     <v>       0.00000000       0.06666667       0.00000000 </v>
     <v>      -0.00000000      -0.00000000       0.04166667 </v>
    </varray>
   </crystal>
   <varray name="positions" >
    <v>       0.00000000       0.00000000       0.00000000 </v>
    <v>       0.00000000       0.00000000       0.12500000 </v>
    <v>       0.00000000       0.00000000       0.25000000 </v>
    <v>       0.00000000       0.00000000       0.37500000 </v>
    <v>       0.00000000       0.00000000       0.50000000 </v>
    <v>       0.00000000       0.00000000       0.62500000 </v>
    <v>       0.00000000       0.00000000       0.75000000 </v>
    <v>       0.00000000       0.00000000       0.87500000 </v>
   </varray>
  </structure>
  <varray name="forces" >
   <v>       0.00000000      -0.00000000      -0.00000000 </v>
   <v>       0.00000000      -0.00000000       0.00000000 </v>
   <v>      -0.00000000       0.00000000      -0.00000000 </v>
   <v>      -0.00000000      -0.00000000       0.00000000 </v>
   <v>       0.00000000      -0.00000000      -0.00000000 </v>
   <v>      -0.00000000       0.00000000       0.00000000 </v>
   <v>      -0.00000000      -0.00000000      -0.00000000 </v>
   <v>      -0.00000000       0.00000000       0.00000000 </v>
  </varray>
  <varray name="stress" >
   <v>      -0.26054734      -0.00000000      -0.00000000 </v>
   <v>      -0.00000000      -0.26054734      -0.00000000 </v>
   <v>      -0.00000000      -0.00000000      -3.67822654 </v>
  </varray>
  <energy>
   <i name="e_fr_energy">     -3.25314796 </i>
   <i name="e_wo_entrp">     -3.13869201 </i>
   <i name="e_0_energy">     -0.22891191 </i>
  </energy>
  <time name="totalsc">   47.53   47.62</time>
  <eigenvalues>
   <array>
    <dimension dim="1">band</dimension>
    <dimension dim="2">kpoint</dimension>
    <dimension dim="3">spin</dimension>
    <field>eigene</field>
    <field>occ</field>
    <set>
     <set comment="spin 1">
      <set comment="kpoint 1">
       <r>   -7.2399    1.0000 </r>
       <r>   -7.0846    0.9985 </r>
       <r>   -7.0846    0.9985 </r>
       <r>   -6.6658    0.5013 </r>
       <r>   -6.6658    0.5013 </r>
       <r>   -6.1639    0.0002 </r>
       <r>   -6.1639    0.0002 </r>
       <r>   -5.9190    0.0000 </r>
       <r>   -0.1301    0.0000 </r>
       <r>   -0.0112    0.0000 </r>
       <r>   -0.0112    0.0000 </r>
       <r>    0.1212    0.0000 </r>
      </set>
     </set>
     <set comment="spin 2">
      <set comment="kpoint 1">
       <r>   -7.2399    1.0000 </r>
       <r>   -7.0846    0.9985 </r>
       <r>   -7.0846    0.9985 </r>
       <r>   -6.6658    0.5013 </r>
       <r>   -6.6658    0.5013 </r>
       <r>   -6.1639    0.0002 </r>
       <r>   -6.1639    0.0002 </r>
       <r>   -5.9190    0.0000 </r>
       <r>   -0.1300    0.0000 </r>
       <r>   -0.0112    0.0000 </r>
       <r>   -0.0112    0.0000 </r>
       <r>    0.1213    0.0000 </r>
      </set>
     </set>
    </set>
   </array>
  </eigenvalues>
  <separator name="orbital magnetization" >
   <v name="MAGDIPOLOUT">      0.00000000      0.00000000      0.00000000</v>
  </separator>
  <dos>
   <i name="efermi">     -6.66535912 </i>
   <total>
    <array>
     <dimension dim="1">gridpoints</dimension>
     <dimension dim="2">spin</dimension>
     <field>energy</field>
     <field>total</field>
     <field>integrated</field>
     <set>
      <set comment="spin 1">
       <r>    -9.2399     0.0000     0.0000 </r>
       <r>    -9.2020     0.0000     0.0000 </r>
       <r>    -9.1641     0.0000     0.0000 </r>
       <r>    -9.1262     0.0000     0.0000 </r>
       <r>    -9.0884     0.0000     0.0000 </r>
       <r>    -9.0505     0.0000     0.0000 </r>
       <r>    -9.0126     0.0000     0.0000 </r>
       <r>    -8.9748     0.0000     0.0000 </r>
       <r>    -8.9369     0.0000     0.0000 </r>
       <r>    -8.8990     0.0000     0.0000 </r>
       <r>    -8.8612     0.0000     0.0000 </r>
       <r>    -8.8233     0.0000     0.0000 </r>
       <r>    -8.7854     0.0000     0.0000 </r>
       <r>    -8.7475     0.0000     0.0000 </r>
       <r>    -8.7097     0.0000     0.0000 </r>
       <r>    -8.6718     0.0000     0.0000 </r>
       <r>    -8.6339     0.0000     0.0000 </r>
       <r>    -8.5961     0.0000     0.0000 </r>
       <r>    -8.5582     0.0000     0.0000 </r>
       <r>    -8.5203     0.0000     0.0000 </r>
       <r>    -8.4824     0.0000     0.0000 </r>
       <r>    -8.4446     0.0000     0.0000 </r>
       <r>    -8.4067     0.0000     0.0000 </r>
       <r>    -8.3688     0.0000     0.0000 </r>
       <r>    -8.3310     0.0000     0.0000 </r>
       <r>    -8.2931     0.0000     0.0000 </r>
       <r>    -8.2552     0.0000     0.0000 </r>
       <r>    -8.2173     0.0000     0.0000 </r>
       <r>    -8.1795     0.0000     0.0000 </r>
       <r>    -8.1416     0.0000     0.0000 </r>
       <r>    -8.1037     0.0000     0.0000 </r>
       <r>    -8.0659     0.0000     0.0000 </r>
       <r>    -8.0280     0.0000     0.0000 </r>
       <r>    -7.9901     0.0000     0.0000 </r>
       <r>    -7.9523     0.0000     0.0000 </r>
       <r>    -7.9144     0.0000     0.0000 </r>
       <r>    -7.8765     0.0001     0.0000 </r>
       <r>    -7.8386     0.0004     0.0000 </r>
       <r>    -7.8008     0.0013     0.0001 </r>
       <r>    -7.7629     0.0039     0.0002 </r>
       <r>    -7.7250     0.0104     0.0006 </r>
       <r>    -7.6872     0.0261     0.0016 </r>
       <r>    -7.6493     0.0612     0.0039 </r>
       <r>    -7.6114     0.1340     0.0090 </r>
       <r>    -7.5735     0.2744     0.0194 </r>
       <r>    -7.5357     0.5260     0.0393 </r>
       <r>    -7.4978     0.9455     0.0751 </r>
       <r>    -7.4599     1.5963     0.1356 </r>
       <r>    -7.4221     2.5370     0.2316 </r>
       <r>    -7.3842     3.8040     0.3757 </r>
       <r>    -7.3463     5.3940     0.5800 </r>
       <r>    -7.3085     7.2499     0.8545 </r>
       <r>    -7.2706     9.2537     1.2050 </r>
       <r>    -7.2327    11.2311     1.6303 </r>
       <r>    -7.1948    12.9684     2.1214 </r>
       <r>    -7.1570    14.2438     2.6609 </r>
       <r>    -7.1191    14.8710     3.2240 </r>
       <r>    -7.0812    14.7497     3.7826 </r>
       <r>    -7.0434    13.9078     4.3093 </r>
       <r>    -7.0055    12.5178     4.7834 </r>
       <r>    -6.9676    10.8744     5.1952 </r>
       <r>    -6.9297     9.3333     5.5486 </r>
       <r>    -6.8919     8.2247     5.8601 </r>
       <r>    -6.8540     7.7681     6.1543 </r>
       <r>    -6.8161     8.0115     6.4577 </r>
       <r>    -6.7783     8.8148     6.7915 </r>
       <r>    -6.7404     9.8847     7.1659 </r>
       <r>    -6.7025    10.8540     7.5769 </r>
       <r>    -6.6647    11.3854     8.0081 </r>
       <r>    -6.6268    11.2675     8.4348 </r>
       <r>    -6.5889    10.4723     8.8314 </r>
       <r>    -6.5510     9.1563     9.1781 </r>
       <r>    -6.5132     7.6074     9.4662 </r>
       <r>    -6.4753     6.1632     9.6996 </r>
       <r>    -6.4374     5.1295     9.8939 </r>
       <r>    -6.3996     4.7195    10.0726 </r>
       <r>    -6.3617     5.0213    10.2628 </r>
       <r>    -6.3238     5.9881    10.4896 </r>
       <r>    -6.2859     7.4477    10.7716 </r>
       <r>    -6.2481     9.1333    11.1175 </r>
       <r>    -6.2102    10.7363    11.5241 </r>
       <r>    -6.1723    11.9769    11.9777 </r>
       <r>    -6.1345    12.6724    12.4576 </r>
       <r>    -6.0966    12.7749    12.9414 </r>
       <r>    -6.0587    12.3624    13.4095 </r>
       <r>    -6.0209    11.5863    13.8483 </r>
       <r>    -5.9830    10.6019    14.2498 </r>
       <r>    -5.9451     9.5169    14.6102 </r>
       <r>    -5.9072     8.3787    14.9275 </r>
       <r>    -5.8694     7.1974    15.2001 </r>
       <r>    -5.8315     5.9821    15.4267 </r>
       <r>    -5.7936     4.7669    15.6072 </r>
       <r>    -5.7558     3.6119    15.7440 </r>
       <r>    -5.7179     2.5854    15.8419 </r>
       <r>    -5.6800     1.7399    15.9078 </r>
       <r>    -5.6421     1.0972    15.9493 </r>
       <r>    -5.6043     0.6469    15.9738 </r>
       <r>    -5.5664     0.3561    15.9873 </r>
       <r>    -5.5285     0.1828    15.9942 </r>
       <r>    -5.4907     0.0875    15.9975 </r>
       <r>    -5.4528     0.0390    15.9990 </r>
       <r>    -5.4149     0.0162    15.9996 </r>
       <r>    -5.3771     0.0063    15.9999 </r>
       <r>    -5.3392     0.0023    16.0000 </r>
       <r>    -5.3013     0.0008    16.0000 </r>
       <r>    -5.2634     0.0002    16.0000 </r>
       <r>    -5.2256     0.0001    16.0000 </r>
       <r>    -5.1877     0.0000    16.0000 </r>
       <r>    -5.1498     0.0000    16.0000 </r>
       <r>    -5.1120     0.0000    16.0000 </r>
       <r>    -5.0741     0.0000    16.0000 </r>
       <r>    -5.0362     0.0000    16.0000 </r>
       <r>    -4.9983     0.0000    16.0000 </r>
       <r>    -4.9605     0.0000    16.0000 </r>
       <r>    -4.9226     0.0000    16.0000 </r>
       <r>    -4.8847     0.0000    16.0000 </r>
       <r>    -4.8469     0.0000    16.0000 </r>
       <r>    -4.8090     0.0000    16.0000 </r>
       <r>    -4.7711     0.0000    16.0000 </r>
       <r>    -4.7332     0.0000    16.0000 </r>
       <r>    -4.6954     0.0000    16.0000 </r>
       <r>    -4.6575     0.0000    16.0000 </r>
       <r>    -4.6196     0.0000    16.0000 </r>
       <r>    -4.5818     0.0000    16.0000 </r>
       <r>    -4.5439     0.0000    16.0000 </r>
       <r>    -4.5060     0.0000    16.0000 </r>
       <r>    -4.4682     0.0000    16.0000 </r>
       <r>    -4.4303     0.0000    16.0000 </r>
       <r>    -4.3924     0.0000    16.0000 </r>
       <r>    -4.3545     0.0000    16.0000 </r>
       <r>    -4.3167     0.0000    16.0000 </r>
       <r>    -4.2788     0.0000    16.0000 </r>
       <r>    -4.2409     0.0000    16.0000 </r>
       <r>    -4.2031     0.0000    16.0000 </r>
       <r>    -4.1652     0.0000    16.0000 </r>
       <r>    -4.1273     0.0000    16.0000 </r>
       <r>    -4.0894     0.0000    16.0000 </r>
       <r>    -4.0516     0.0000    16.0000 </r>
       <r>    -4.0137     0.0000    16.0000 </r>
       <r>    -3.9758     0.0000    16.0000 </r>
       <r>    -3.9380     0.0000    16.0000 </r>
       <r>    -3.9001     0.0000    16.0000 </r>
       <r>    -3.8622     0.0000    16.0000 </r>
       <r>    -3.8244     0.0000    16.0000 </r>
       <r>    -3.7865     0.0000    16.0000 </r>
       <r>    -3.7486     0.0000    16.0000 </r>
       <r>    -3.7107     0.0000    16.0000 </r>
       <r>    -3.6729     0.0000    16.0000 </r>
       <r>    -3.6350     0.0000    16.0000 </r>
       <r>    -3.5971     0.0000    16.0000 </r>
       <r>    -3.5593     0.0000    16.0000 </r>
       <r>    -3.5214     0.0000    16.0000 </r>
       <r>    -3.4835     0.0000    16.0000 </r>
       <r>    -3.4456     0.0000    16.0000 </r>
       <r>    -3.4078     0.0000    16.0000 </r>
       <r>    -3.3699     0.0000    16.0000 </r>
       <r>    -3.3320     0.0000    16.0000 </r>
       <r>    -3.2942     0.0000    16.0000 </r>
       <r>    -3.2563     0.0000    16.0000 </r>
       <r>    -3.2184     0.0000    16.0000 </r>
       <r>    -3.1806     0.0000    16.0000 </r>
       <r>    -3.1427     0.0000    16.0000 </r>
       <r>    -3.1048     0.0000    16.0000 </r>
       <r>    -3.0669     0.0000    16.0000 </r>
       <r>    -3.0291     0.0000    16.0000 </r>
       <r>    -2.9912     0.0000    16.0000 </r>
       <r>    -2.9533     0.0000    16.0000 </r>
       <r>    -2.9155     0.0000    16.0000 </r>
       <r>    -2.8776     0.0000    16.0000 </r>
       <r>    -2.8397     0.0000    16.0000 </r>
       <r>    -2.8018     0.0000    16.0000 </r>
       <r>    -2.7640     0.0000    16.0000 </r>
       <r>    -2.7261     0.0000    16.0000 </r>
       <r>    -2.6882     0.0000    16.0000 </r>
       <r>    -2.6504     0.0000    16.0000 </r>
       <r>    -2.6125     0.0000    16.0000 </r>
       <r>    -2.5746     0.0000    16.0000 </r>
       <r>    -2.5368     0.0000    16.0000 </r>
       <r>    -2.4989     0.0000    16.0000 </r>
       <r>    -2.4610     0.0000    16.0000 </r>
       <r>    -2.4231     0.0000    16.0000 </r>
       <r>    -2.3853     0.0000    16.0000 </r>
       <r>    -2.3474     0.0000    16.0000 </r>
       <r>    -2.3095     0.0000    16.0000 </r>
       <r>    -2.2717     0.0000    16.0000 </r>
       <r>    -2.2338     0.0000    16.0000 </r>
       <r>    -2.1959     0.0000    16.0000 </r>
       <r>    -2.1580     0.0000    16.0000 </r>
       <r>    -2.1202     0.0000    16.0000 </r>
       <r>    -2.0823     0.0000    16.0000 </r>
       <r>    -2.0444     0.0000    16.0000 </r>
       <r>    -2.0066     0.0000    16.0000 </r>
       <r>    -1.9687     0.0000    16.0000 </r>
       <r>    -1.9308     0.0000    16.0000 </r>
       <r>    -1.8930     0.0000    16.0000 </r>
       <r>    -1.8551     0.0000    16.0000 </r>
       <r>    -1.8172     0.0000    16.0000 </r>
       <r>    -1.7793     0.0000    16.0000 </r>
       <r>    -1.7415     0.0000    16.0000 </r>
       <r>    -1.7036     0.0000    16.0000 </r>
       <r>    -1.6657     0.0000    16.0000 </r>
       <r>    -1.6279     0.0000    16.0000 </r>
       <r>    -1.5900     0.0000    16.0000 </r>
       <r>    -1.5521     0.0000    16.0000 </r>
       <r>    -1.5142     0.0000    16.0000 </r>
       <r>    -1.4764     0.0000    16.0000 </r>
       <r>    -1.4385     0.0000    16.0000 </r>
       <r>    -1.4006     0.0000    16.0000 </r>
       <r>    -1.3628     0.0000    16.0000 </r>
       <r>    -1.3249     0.0000    16.0000 </r>
       <r>    -1.2870     0.0000    16.0000 </r>
       <r>    -1.2491     0.0000    16.0000 </r>
       <r>    -1.2113     0.0000    16.0000 </r>
       <r>    -1.1734     0.0000    16.0000 </r>
       <r>    -1.1355     0.0000    16.0000 </r>
       <r>    -1.0977     0.0000    16.0000 </r>
       <r>    -1.0598     0.0000    16.0000 </r>
       <r>    -1.0219     0.0000    16.0000 </r>
       <r>    -0.9841     0.0000    16.0000 </r>
       <r>    -0.9462     0.0000    16.0000 </r>
       <r>    -0.9083     0.0000    16.0000 </r>
       <r>    -0.8704     0.0000    16.0000 </r>
       <r>    -0.8326     0.0000    16.0000 </r>
       <r>    -0.7947     0.0001    16.0000 </r>
       <r>    -0.7568     0.0002    16.0000 </r>
       <r>    -0.7190     0.0006    16.0000 </r>
       <r>    -0.6811     0.0018    16.0001 </r>
       <r>    -0.6432     0.0053    16.0003 </r>
       <r>    -0.6053     0.0140    16.0008 </r>
       <r>    -0.5675     0.0349    16.0022 </r>
       <r>    -0.5296     0.0812    16.0052 </r>
       <r>    -0.4917     0.1770    16.0119 </r>
       <r>    -0.4539     0.3613    16.0256 </r>
       <r>    -0.4160     0.6916    16.0518 </r>
       <r>    -0.3781     1.2429    16.0989 </r>
       <r>    -0.3403     2.1005    16.1784 </r>
       <r>    -0.3024     3.3426    16.3050 </r>
       <r>    -0.2645     5.0167    16.4950 </r>
       <r>    -0.2266     7.1116    16.7643 </r>
       <r>    -0.1888     9.5368    17.1255 </r>
       <r>    -0.1509    12.1153    17.5843 </r>
       <r>    -0.1130    14.5998    18.1372 </r>
       <r>    -0.0752    16.7093    18.7700 </r>
       <r>    -0.0373    18.1817    19.4585 </r>
       <r>     0.0006    18.8262    20.1715 </r>
       <r>     0.0385    18.5634    20.8745 </r>
       <r>     0.0763    17.4389    21.5349 </r>
       <r>     0.1142    15.6106    22.1261 </r>
       <r>     0.1521    13.3126    22.6303 </r>
       <r>     0.1899    10.8087    23.0396 </r>
       <r>     0.2278     8.3459    23.3557 </r>
       <r>     0.2657     6.1195    23.5874 </r>
       <r>     0.3035     4.2533    23.7485 </r>
       <r>     0.3414     2.7967    23.8544 </r>
       <r>     0.3793     1.7361    23.9202 </r>
       <r>     0.4172     1.0154    23.9586 </r>
       <r>     0.4550     0.5584    23.9798 </r>
       <r>     0.4929     0.2884    23.9907 </r>
       <r>     0.5308     0.1396    23.9960 </r>
       <r>     0.5686     0.0632    23.9984 </r>
       <r>     0.6065     0.0268    23.9994 </r>
       <r>     0.6444     0.0106    23.9998 </r>
       <r>     0.6823     0.0039    23.9999 </r>
       <r>     0.7201     0.0014    24.0000 </r>
       <r>     0.7580     0.0004    24.0000 </r>
       <r>     0.7959     0.0001    24.0000 </r>
       <r>     0.8337     0.0000    24.0000 </r>
       <r>     0.8716     0.0000    24.0000 </r>
       <r>     0.9095     0.0000    24.0000 </r>
       <r>     0.9473     0.0000    24.0000 </r>
       <r>     0.9852     0.0000    24.0000 </r>
       <r>     1.0231     0.0000    24.0000 </r>
       <r>     1.0610     0.0000    24.0000 </r>
       <r>     1.0988     0.0000    24.0000 </r>
       <r>     1.1367     0.0000    24.0000 </r>
       <r>     1.1746     0.0000    24.0000 </r>
       <r>     1.2124     0.0000    24.0000 </r>
       <r>     1.2503     0.0000    24.0000 </r>
       <r>     1.2882     0.0000    24.0000 </r>
       <r>     1.3261     0.0000    24.0000 </r>
       <r>     1.3639     0.0000    24.0000 </r>
       <r>     1.4018     0.0000    24.0000 </r>
       <r>     1.4397     0.0000    24.0000 </r>
       <r>     1.4775     0.0000    24.0000 </r>
       <r>     1.5154     0.0000    24.0000 </r>
       <r>     1.5533     0.0000    24.0000 </r>
       <r>     1.5911     0.0000    24.0000 </r>
       <r>     1.6290     0.0000    24.0000 </r>
       <r>     1.6669     0.0000    24.0000 </r>
       <r>     1.7048     0.0000    24.0000 </r>
       <r>     1.7426     0.0000    24.0000 </r>
       <r>     1.7805     0.0000    24.0000 </r>
       <r>     1.8184     0.0000    24.0000 </r>
       <r>     1.8562     0.0000    24.0000 </r>
       <r>     1.8941     0.0000    24.0000 </r>
       <r>     1.9320     0.0000    24.0000 </r>
       <r>     1.9699     0.0000    24.0000 </r>
       <r>     2.0077     0.0000    24.0000 </r>
       <r>     2.0456     0.0000    24.0000 </r>
       <r>     2.0835     0.0000    24.0000 </r>
       <r>     2.1213     0.0000    24.0000 </r>
      </set>
      <set comment="spin 2">
       <r>    -9.2399     0.0000     0.0000 </r>
       <r>    -9.2020     0.0000     0.0000 </r>
       <r>    -9.1641     0.0000     0.0000 </r>
       <r>    -9.1262     0.0000     0.0000 </r>
       <r>    -9.0884     0.0000     0.0000 </r>
       <r>    -9.0505     0.0000     0.0000 </r>
       <r>    -9.0126     0.0000     0.0000 </r>
       <r>    -8.9748     0.0000     0.0000 </r>
       <r>    -8.9369     0.0000     0.0000 </r>
       <r>    -8.8990     0.0000     0.0000 </r>
       <r>    -8.8612     0.0000     0.0000 </r>
       <r>    -8.8233     0.0000     0.0000 </r>
       <r>    -8.7854     0.0000     0.0000 </r>
       <r>    -8.7475     0.0000     0.0000 </r>
       <r>    -8.7097     0.0000     0.0000 </r>
       <r>    -8.6718     0.0000     0.0000 </r>
       <r>    -8.6339     0.0000     0.0000 </r>
       <r>    -8.5961     0.0000     0.0000 </r>
       <r>    -8.5582     0.0000     0.0000 </r>
       <r>    -8.5203     0.0000     0.0000 </r>
       <r>    -8.4824     0.0000     0.0000 </r>
       <r>    -8.4446     0.0000     0.0000 </r>
       <r>    -8.4067     0.0000     0.0000 </r>
       <r>    -8.3688     0.0000     0.0000 </r>
       <r>    -8.3310     0.0000     0.0000 </r>
       <r>    -8.2931     0.0000     0.0000 </r>
       <r>    -8.2552     0.0000     0.0000 </r>
       <r>    -8.2173     0.0000     0.0000 </r>
       <r>    -8.1795     0.0000     0.0000 </r>
       <r>    -8.1416     0.0000     0.0000 </r>
       <r>    -8.1037     0.0000     0.0000 </r>
       <r>    -8.0659     0.0000     0.0000 </r>
       <r>    -8.0280     0.0000     0.0000 </r>
       <r>    -7.9901     0.0000     0.0000 </r>
       <r>    -7.9523     0.0000     0.0000 </r>
       <r>    -7.9144     0.0000     0.0000 </r>
       <r>    -7.8765     0.0001     0.0000 </r>
       <r>    -7.8386     0.0004     0.0000 </r>
       <r>    -7.8008     0.0013     0.0001 </r>
       <r>    -7.7629     0.0039     0.0002 </r>
       <r>    -7.7250     0.0104     0.0006 </r>
       <r>    -7.6872     0.0261     0.0016 </r>
       <r>    -7.6493     0.0612     0.0039 </r>
       <r>    -7.6114     0.1340     0.0090 </r>
       <r>    -7.5735     0.2744     0.0194 </r>
       <r>    -7.5357     0.5260     0.0393 </r>
       <r>    -7.4978     0.9455     0.0751 </r>
       <r>    -7.4599     1.5963     0.1356 </r>
       <r>    -7.4221     2.5370     0.2316 </r>
       <r>    -7.3842     3.8039     0.3757 </r>
       <r>    -7.3463     5.3940     0.5800 </r>
       <r>    -7.3085     7.2499     0.8545 </r>
       <r>    -7.2706     9.2537     1.2050 </r>
       <r>    -7.2327    11.2310     1.6303 </r>
       <r>    -7.1948    12.9684     2.1214 </r>
       <r>    -7.1570    14.2438     2.6609 </r>
       <r>    -7.1191    14.8710     3.2240 </r>
       <r>    -7.0812    14.7497     3.7826 </r>
       <r>    -7.0434    13.9078     4.3093 </r>
       <r>    -7.0055    12.5178     4.7834 </r>
       <r>    -6.9676    10.8744     5.1952 </r>
       <r>    -6.9297     9.3333     5.5486 </r>
       <r>    -6.8919     8.2247     5.8601 </r>
       <r>    -6.8540     7.7681     6.1543 </r>
       <r>    -6.8161     8.0115     6.4577 </r>
       <r>    -6.7783     8.8148     6.7915 </r>
       <r>    -6.7404     9.8847     7.1659 </r>
       <r>    -6.7025    10.8540     7.5769 </r>
       <r>    -6.6647    11.3854     8.0081 </r>
       <r>    -6.6268    11.2675     8.4348 </r>
       <r>    -6.5889    10.4723     8.8314 </r>
       <r>    -6.5510     9.1563     9.1781 </r>
       <r>    -6.5132     7.6074     9.4662 </r>
       <r>    -6.4753     6.1632     9.6996 </r>
       <r>    -6.4374     5.1295     9.8939 </r>
       <r>    -6.3996     4.7195    10.0726 </r>
       <r>    -6.3617     5.0213    10.2628 </r>
       <r>    -6.3238     5.9881    10.4896 </r>
       <r>    -6.2859     7.4477    10.7716 </r>
       <r>    -6.2481     9.1333    11.1175 </r>
       <r>    -6.2102    10.7363    11.5241 </r>
       <r>    -6.1723    11.9769    11.9777 </r>
       <r>    -6.1345    12.6724    12.4576 </r>
       <r>    -6.0966    12.7749    12.9414 </r>
       <r>    -6.0587    12.3624    13.4095 </r>
       <r>    -6.0209    11.5863    13.8483 </r>
       <r>    -5.9830    10.6019    14.2498 </r>
       <r>    -5.9451     9.5169    14.6102 </r>
       <r>    -5.9072     8.3787    14.9275 </r>
       <r>    -5.8694     7.1974    15.2001 </r>
       <r>    -5.8315     5.9821    15.4267 </r>
       <r>    -5.7936     4.7669    15.6072 </r>
       <r>    -5.7558     3.6119    15.7440 </r>
       <r>    -5.7179     2.5854    15.8419 </r>
       <r>    -5.6800     1.7399    15.9078 </r>
       <r>    -5.6421     1.0972    15.9493 </r>
       <r>    -5.6043     0.6469    15.9738 </r>
       <r>    -5.5664     0.3561    15.9873 </r>
       <r>    -5.5285     0.1828    15.9942 </r>
       <r>    -5.4907     0.0875    15.9975 </r>
       <r>    -5.4528     0.0390    15.9990 </r>
       <r>    -5.4149     0.0162    15.9996 </r>
       <r>    -5.3771     0.0063    15.9999 </r>
       <r>    -5.3392     0.0023    16.0000 </r>
       <r>    -5.3013     0.0008    16.0000 </r>
       <r>    -5.2634     0.0002    16.0000 </r>
       <r>    -5.2256     0.0001    16.0000 </r>
       <r>    -5.1877     0.0000    16.0000 </r>
       <r>    -5.1498     0.0000    16.0000 </r>
       <r>    -5.1120     0.0000    16.0000 </r>
       <r>    -5.0741     0.0000    16.0000 </r>
       <r>    -5.0362     0.0000    16.0000 </r>
       <r>    -4.9983     0.0000    16.0000 </r>
       <r>    -4.9605     0.0000    16.0000 </r>
       <r>    -4.9226     0.0000    16.0000 </r>
       <r>    -4.8847     0.0000    16.0000 </r>
       <r>    -4.8469     0.0000    16.0000 </r>
       <r>    -4.8090     0.0000    16.0000 </r>
       <r>    -4.7711     0.0000    16.0000 </r>
       <r>    -4.7332     0.0000    16.0000 </r>
       <r>    -4.6954     0.0000    16.0000 </r>
       <r>    -4.6575     0.0000    16.0000 </r>
       <r>    -4.6196     0.0000    16.0000 </r>
       <r>    -4.5818     0.0000    16.0000 </r>
       <r>    -4.5439     0.0000    16.0000 </r>
       <r>    -4.5060     0.0000    16.0000 </r>
       <r>    -4.4682     0.0000    16.0000 </r>
       <r>    -4.4303     0.0000    16.0000 </r>
       <r>    -4.3924     0.0000    16.0000 </r>
       <r>    -4.3545     0.0000    16.0000 </r>
       <r>    -4.3167     0.0000    16.0000 </r>
       <r>    -4.2788     0.0000    16.0000 </r>
       <r>    -4.2409     0.0000    16.0000 </r>
       <r>    -4.2031     0.0000    16.0000 </r>
       <r>    -4.1652     0.0000    16.0000 </r>
       <r>    -4.1273     0.0000    16.0000 </r>
       <r>    -4.0894     0.0000    16.0000 </r>
       <r>    -4.0516     0.0000    16.0000 </r>
       <r>    -4.0137     0.0000    16.0000 </r>
       <r>    -3.9758     0.0000    16.0000 </r>
       <r>    -3.9380     0.0000    16.0000 </r>
       <r>    -3.9001     0.0000    16.0000 </r>
       <r>    -3.8622     0.0000    16.0000 </r>
       <r>    -3.8244     0.0000    16.0000 </r>
       <r>    -3.7865     0.0000    16.0000 </r>
       <r>    -3.7486     0.0000    16.0000 </r>
       <r>    -3.7107     0.0000    16.0000 </r>
       <r>    -3.6729     0.0000    16.0000 </r>
       <r>    -3.6350     0.0000    16.0000 </r>
       <r>    -3.5971     0.0000    16.0000 </r>
       <r>    -3.5593     0.0000    16.0000 </r>
       <r>    -3.5214     0.0000    16.0000 </r>
       <r>    -3.4835     0.0000    16.0000 </r>
       <r>    -3.4456     0.0000    16.0000 </r>
       <r>    -3.4078     0.0000    16.0000 </r>
       <r>    -3.3699     0.0000    16.0000 </r>
       <r>    -3.3320     0.0000    16.0000 </r>
       <r>    -3.2942     0.0000    16.0000 </r>
       <r>    -3.2563     0.0000    16.0000 </r>
       <r>    -3.2184     0.0000    16.0000 </r>
       <r>    -3.1806     0.0000    16.0000 </r>
       <r>    -3.1427     0.0000    16.0000 </r>
       <r>    -3.1048     0.0000    16.0000 </r>
       <r>    -3.0669     0.0000    16.0000 </r>
       <r>    -3.0291     0.0000    16.0000 </r>
       <r>    -2.9912     0.0000    16.0000 </r>
       <r>    -2.9533     0.0000    16.0000 </r>
       <r>    -2.9155     0.0000    16.0000 </r>
       <r>    -2.8776     0.0000    16.0000 </r>
       <r>    -2.8397     0.0000    16.0000 </r>
       <r>    -2.8018     0.0000    16.0000 </r>
       <r>    -2.7640     0.0000    16.0000 </r>
       <r>    -2.7261     0.0000    16.0000 </r>
       <r>    -2.6882     0.0000    16.0000 </r>
       <r>    -2.6504     0.0000    16.0000 </r>
       <r>    -2.6125     0.0000    16.0000 </r>
       <r>    -2.5746     0.0000    16.0000 </r>
       <r>    -2.5368     0.0000    16.0000 </r>
       <r>    -2.4989     0.0000    16.0000 </r>
       <r>    -2.4610     0.0000    16.0000 </r>
       <r>    -2.4231     0.0000    16.0000 </r>
       <r>    -2.3853     0.0000    16.0000 </r>
       <r>    -2.3474     0.0000    16.0000 </r>
       <r>    -2.3095     0.0000    16.0000 </r>
       <r>    -2.2717     0.0000    16.0000 </r>
       <r>    -2.2338     0.0000    16.0000 </r>
       <r>    -2.1959     0.0000    16.0000 </r>
       <r>    -2.1580     0.0000    16.0000 </r>
       <r>    -2.1202     0.0000    16.0000 </r>
       <r>    -2.0823     0.0000    16.0000 </r>
       <r>    -2.0444     0.0000    16.0000 </r>
       <r>    -2.0066     0.0000    16.0000 </r>
       <r>    -1.9687     0.0000    16.0000 </r>
       <r>    -1.9308     0.0000    16.0000 </r>
       <r>    -1.8930     0.0000    16.0000 </r>
       <r>    -1.8551     0.0000    16.0000 </r>
       <r>    -1.8172     0.0000    16.0000 </r>
       <r>    -1.7793     0.0000    16.0000 </r>
       <r>    -1.7415     0.0000    16.0000 </r>
       <r>    -1.7036     0.0000    16.0000 </r>
       <r>    -1.6657     0.0000    16.0000 </r>
       <r>    -1.6279     0.0000    16.0000 </r>
       <r>    -1.5900     0.0000    16.0000 </r>
       <r>    -1.5521     0.0000    16.0000 </r>
       <r>    -1.5142     0.0000    16.0000 </r>
       <r>    -1.4764     0.0000    16.0000 </r>
       <r>    -1.4385     0.0000    16.0000 </r>
       <r>    -1.4006     0.0000    16.0000 </r>
       <r>    -1.3628     0.0000    16.0000 </r>
       <r>    -1.3249     0.0000    16.0000 </r>
       <r>    -1.2870     0.0000    16.0000 </r>
       <r>    -1.2491     0.0000    16.0000 </r>
       <r>    -1.2113     0.0000    16.0000 </r>
       <r>    -1.1734     0.0000    16.0000 </r>
       <r>    -1.1355     0.0000    16.0000 </r>
       <r>    -1.0977     0.0000    16.0000 </r>
       <r>    -1.0598     0.0000    16.0000 </r>
       <r>    -1.0219     0.0000    16.0000 </r>
       <r>    -0.9841     0.0000    16.0000 </r>
       <r>    -0.9462     0.0000    16.0000 </r>
       <r>    -0.9083     0.0000    16.0000 </r>
       <r>    -0.8704     0.0000    16.0000 </r>
       <r>    -0.8326     0.0000    16.0000 </r>
       <r>    -0.7947     0.0001    16.0000 </r>
       <r>    -0.7568     0.0002    16.0000 </r>
       <r>    -0.7190     0.0006    16.0000 </r>
       <r>    -0.6811     0.0018    16.0001 </r>
       <r>    -0.6432     0.0052    16.0003 </r>
       <r>    -0.6053     0.0140    16.0008 </r>
       <r>    -0.5675     0.0348    16.0021 </r>
       <r>    -0.5296     0.0810    16.0052 </r>
       <r>    -0.4917     0.1766    16.0119 </r>
       <r>    -0.4539     0.3606    16.0256 </r>
       <r>    -0.4160     0.6904    16.0517 </r>
       <r>    -0.3781     1.2411    16.0987 </r>
       <r>    -0.3403     2.0979    16.1782 </r>
       <r>    -0.3024     3.3393    16.3046 </r>
       <r>    -0.2645     5.0127    16.4945 </r>
       <r>    -0.2266     7.1074    16.7636 </r>
       <r>    -0.1888     9.5326    17.1246 </r>
       <r>    -0.1509    12.1117    17.5833 </r>
       <r>    -0.1130    14.5970    18.1361 </r>
       <r>    -0.0752    16.7074    18.7688 </r>
       <r>    -0.0373    18.1807    19.4573 </r>
       <r>     0.0006    18.8261    20.1703 </r>
       <r>     0.0385    18.5641    20.8733 </r>
       <r>     0.0763    17.4404    21.5338 </r>
       <r>     0.1142    15.6129    22.1251 </r>
       <r>     0.1521    13.3157    22.6293 </r>
       <r>     0.1899    10.8124    23.0388 </r>
       <r>     0.2278     8.3499    23.3550 </r>
       <r>     0.2657     6.1235    23.5869 </r>
       <r>     0.3035     4.2570    23.7482 </r>
       <r>     0.3414     2.7997    23.8542 </r>
       <r>     0.3793     1.7383    23.9200 </r>
       <r>     0.4172     1.0169    23.9585 </r>
       <r>     0.4550     0.5595    23.9797 </r>
       <r>     0.4929     0.2890    23.9907 </r>
       <r>     0.5308     0.1399    23.9960 </r>
       <r>     0.5686     0.0634    23.9984 </r>
       <r>     0.6065     0.0269    23.9994 </r>
       <r>     0.6444     0.0106    23.9998 </r>
       <r>     0.6823     0.0039    23.9999 </r>
       <r>     0.7201     0.0014    24.0000 </r>
       <r>     0.7580     0.0004    24.0000 </r>
       <r>     0.7959     0.0001    24.0000 </r>
       <r>     0.8337     0.0000    24.0000 </r>
       <r>     0.8716     0.0000    24.0000 </r>
       <r>     0.9095     0.0000    24.0000 </r>
       <r>     0.9473     0.0000    24.0000 </r>
       <r>     0.9852     0.0000    24.0000 </r>
       <r>     1.0231     0.0000    24.0000 </r>
       <r>     1.0610     0.0000    24.0000 </r>
       <r>     1.0988     0.0000    24.0000 </r>
       <r>     1.1367     0.0000    24.0000 </r>
       <r>     1.1746     0.0000    24.0000 </r>
       <r>     1.2124     0.0000    24.0000 </r>
       <r>     1.2503     0.0000    24.0000 </r>
       <r>     1.2882     0.0000    24.0000 </r>
       <r>     1.3261     0.0000    24.0000 </r>
       <r>     1.3639     0.0000    24.0000 </r>
       <r>     1.4018     0.0000    24.0000 </r>
       <r>     1.4397     0.0000    24.0000 </r>
       <r>     1.4775     0.0000    24.0000 </r>
       <r>     1.5154     0.0000    24.0000 </r>
       <r>     1.5533     0.0000    24.0000 </r>
       <r>     1.5911     0.0000    24.0000 </r>
       <r>     1.6290     0.0000    24.0000 </r>
       <r>     1.6669     0.0000    24.0000 </r>
       <r>     1.7048     0.0000    24.0000 </r>
       <r>     1.7426     0.0000    24.0000 </r>
       <r>     1.7805     0.0000    24.0000 </r>
       <r>     1.8184     0.0000    24.0000 </r>
       <r>     1.8562     0.0000    24.0000 </r>
       <r>     1.8941     0.0000    24.0000 </r>
       <r>     1.9320     0.0000    24.0000 </r>
       <r>     1.9699     0.0000    24.0000 </r>
       <r>     2.0077     0.0000    24.0000 </r>
       <r>     2.0456     0.0000    24.0000 </r>
       <r>     2.0835     0.0000    24.0000 </r>
       <r>     2.1213     0.0000    24.0000 </r>
      </set>
     </set>
    </array>
   </total>
  </dos>
 </calculation>
 <structure name="finalpos" >
  <crystal>
   <varray name="basis" >
    <v>      15.00000000       0.00000000       0.00000000 </v>
    <v>       0.00000000      15.00000000       0.00000000 </v>
    <v>       0.00000000       0.00000000      24.00000000 </v>
   </varray>
   <i name="volume">   5400.00000000 </i>
   <varray name="rec_basis" >
    <v>       0.06666667      -0.00000000       0.00000000 </v>
    <v>       0.00000000       0.06666667       0.00000000 </v>
    <v>      -0.00000000      -0.00000000       0.04166667 </v>
   </varray>
  </crystal>
  <varray name="positions" >
   <v>       0.00000000       0.00000000       0.00000000 </v>
   <v>       0.00000000       0.00000000       0.12500000 </v>
   <v>       0.00000000       0.00000000       0.25000000 </v>
   <v>       0.00000000       0.00000000       0.37500000 </v>
   <v>       0.00000000       0.00000000       0.50000000 </v>
   <v>       0.00000000       0.00000000       0.62500000 </v>
   <v>       0.00000000       0.00000000       0.75000000 </v>
   <v>       0.00000000       0.00000000       0.87500000 </v>
  </varray>
 </structure>
</modeling>
