   8   8   0   0
  0.4275000E+03  0.1500000E-08  0.1500000E-08  0.1520000E-08  0.5000000E-15
  1.000000000000000E-004
  CAR 
 unknown system                          
      2.53213036    -10.91003885  301     -6.62911233      1.00000000
    -10.910  0.0000E+00  0.0000E+00  0.0000E+00  0.0000E+00
    -10.865  0.0000E+00  0.0000E+00  0.0000E+00  0.0000E+00
    -10.820  0.0000E+00  0.0000E+00  0.0000E+00  0.0000E+00
    -10.776  0.0000E+00  0.0000E+00  0.0000E+00  0.0000E+00
    -10.731  0.0000E+00  0.0000E+00  0.0000E+00  0.0000E+00
    -10.686  0.0000E+00  0.0000E+00  0.0000E+00  0.0000E+00
    -10.641  0.0000E+00  0.0000E+00  0.0000E+00  0.0000E+00
    -10.596  0.0000E+00  0.0000E+00  0.0000E+00  0.0000E+00
    -10.552  0.0000E+00  0.0000E+00  0.0000E+00  0.0000E+00
    -10.507  0.0000E+00  0.0000E+00  0.0000E+00  0.0000E+00
    -10.462  0.0000E+00  0.0000E+00  0.0000E+00  0.0000E+00
    -10.417  0.0000E+00  0.0000E+00  0.0000E+00  0.0000E+00
    -10.372  0.0000E+00  0.0000E+00  0.0000E+00  0.0000E+00
    -10.328  0.0000E+00  0.0000E+00  0.0000E+00  0.0000E+00
    -10.283  0.0000E+00  0.0000E+00  0.0000E+00  0.0000E+00
    -10.238  0.0000E+00  0.0000E+00  0.0000E+00  0.0000E+00
    -10.193  0.0000E+00  0.0000E+00  0.0000E+00  0.0000E+00
    -10.148  0.0000E+00  0.0000E+00  0.0000E+00  0.0000E+00
    -10.104  0.0000E+00  0.0000E+00  0.0000E+00  0.0000E+00
    -10.059  0.9911E-14  0.9911E-14  0.4441E-15  0.4441E-15
    -10.014  0.1214E-12  0.1214E-12  0.5884E-14  0.5884E-14
     -9.969  0.1422E-11  0.1422E-11  0.6961E-13  0.6961E-13
     -9.924  0.1497E-10  0.1497E-10  0.7403E-12  0.7404E-12
     -9.879  0.1427E-09  0.1427E-09  0.7135E-11  0.7135E-11
     -9.835  0.1231E-08  0.1231E-08  0.6231E-10  0.6231E-10
     -9.790  0.9616E-08  0.9616E-08  0.4932E-09  0.4932E-09
     -9.745  0.6797E-07  0.6797E-07  0.3539E-08  0.3539E-08
     -9.700  0.4349E-06  0.4349E-06  0.2302E-07  0.2302E-07
     -9.655  0.2518E-05  0.2518E-05  0.1359E-06  0.1359E-06
     -9.611  0.1320E-04  0.1320E-04  0.7273E-06  0.7273E-06
     -9.566  0.6263E-04  0.6263E-04  0.3534E-05  0.3534E-05
     -9.521  0.2690E-03  0.2690E-03  0.1559E-04  0.1559E-04
     -9.476  0.1046E-02  0.1046E-02  0.6243E-04  0.6243E-04
     -9.431  0.3679E-02  0.3679E-02  0.2273E-03  0.2273E-03
     -9.387  0.1172E-01  0.1172E-01  0.7524E-03  0.7524E-03
     -9.342  0.3379E-01  0.3379E-01  0.2266E-02  0.2266E-02
     -9.297  0.8818E-01  0.8818E-01  0.6218E-02  0.6218E-02
     -9.252  0.2083E+00  0.2083E+00  0.1555E-01  0.1555E-01
     -9.207  0.4456E+00  0.4456E+00  0.3552E-01  0.3552E-01
     -9.163  0.8626E+00  0.8626E+00  0.7417E-01  0.7417E-01
     -9.118  0.1512E+01  0.1512E+01  0.1419E+00  0.1419E+00
     -9.073  0.2398E+01  0.2398E+01  0.2494E+00  0.2494E+00
     -9.028  0.3444E+01  0.3444E+01  0.4037E+00  0.4037E+00
     -8.983  0.4477E+01  0.4477E+01  0.6043E+00  0.6043E+00
     -8.939  0.5270E+01  0.5270E+01  0.8404E+00  0.8404E+00
     -8.894  0.5615E+01  0.5615E+01  0.1092E+01  0.1092E+01
     -8.849  0.5421E+01  0.5421E+01  0.1335E+01  0.1335E+01
     -8.804  0.4749E+01  0.4749E+01  0.1548E+01  0.1548E+01
     -8.759  0.3802E+01  0.3802E+01  0.1718E+01  0.1718E+01
     -8.714  0.2847E+01  0.2847E+01  0.1846E+01  0.1846E+01
     -8.670  0.2144E+01  0.2144E+01  0.1942E+01  0.1942E+01
     -8.625  0.1900E+01  0.1900E+01  0.2027E+01  0.2027E+01
     -8.580  0.2254E+01  0.2254E+01  0.2128E+01  0.2128E+01
     -8.535  0.3267E+01  0.3267E+01  0.2274E+01  0.2274E+01
     -8.490  0.4890E+01  0.4890E+01  0.2493E+01  0.2493E+01
     -8.446  0.6912E+01  0.6912E+01  0.2803E+01  0.2803E+01
     -8.401  0.8952E+01  0.8952E+01  0.3204E+01  0.3204E+01
     -8.356  0.1053E+02  0.1053E+02  0.3676E+01  0.3676E+01
     -8.311  0.1123E+02  0.1123E+02  0.4179E+01  0.4179E+01
     -8.266  0.1084E+02  0.1084E+02  0.4665E+01  0.4665E+01
     -8.222  0.9468E+01  0.9468E+01  0.5089E+01  0.5089E+01
     -8.177  0.7490E+01  0.7490E+01  0.5424E+01  0.5424E+01
     -8.132  0.5363E+01  0.5363E+01  0.5665E+01  0.5665E+01
     -8.087  0.3476E+01  0.3476E+01  0.5820E+01  0.5820E+01
     -8.042  0.2040E+01  0.2040E+01  0.5912E+01  0.5912E+01
     -7.998  0.1084E+01  0.1084E+01  0.5960E+01  0.5960E+01
     -7.953  0.5210E+00  0.5210E+00  0.5984E+01  0.5984E+01
     -7.908  0.2268E+00  0.2268E+00  0.5994E+01  0.5994E+01
     -7.863  0.8936E-01  0.8936E-01  0.5998E+01  0.5998E+01
     -7.818  0.3187E-01  0.3187E-01  0.5999E+01  0.5999E+01
     -7.774  0.1029E-01  0.1029E-01  0.6000E+01  0.6000E+01
     -7.729  0.3007E-02  0.3007E-02  0.6000E+01  0.6000E+01
     -7.684  0.7955E-03  0.7955E-03  0.6000E+01  0.6000E+01
     -7.639  0.1905E-03  0.1905E-03  0.6000E+01  0.6000E+01
     -7.594  0.4129E-04  0.4129E-04  0.6000E+01  0.6000E+01
     -7.549  0.8104E-05  0.8104E-05  0.6000E+01  0.6000E+01
     -7.505  0.1462E-05  0.1462E-05  0.6000E+01  0.6000E+01
     -7.460  0.3940E-06  0.3940E-06  0.6000E+01  0.6000E+01
     -7.415  0.1065E-05  0.1065E-05  0.6000E+01  0.6000E+01
     -7.370  0.5922E-05  0.5922E-05  0.6000E+01  0.6000E+01
     -7.325  0.3072E-04  0.3072E-04  0.6000E+01  0.6000E+01
     -7.281  0.1444E-03  0.1444E-03  0.6000E+01  0.6000E+01
     -7.236  0.6143E-03  0.6143E-03  0.6000E+01  0.6000E+01
     -7.191  0.2366E-02  0.2366E-02  0.6000E+01  0.6000E+01
     -7.146  0.8246E-02  0.8246E-02  0.6001E+01  0.6001E+01
     -7.101  0.2602E-01  0.2602E-01  0.6002E+01  0.6002E+01
     -7.057  0.7432E-01  0.7432E-01  0.6005E+01  0.6005E+01
     -7.012  0.1921E+00  0.1921E+00  0.6014E+01  0.6014E+01
     -6.967  0.4497E+00  0.4497E+00  0.6034E+01  0.6034E+01
     -6.922  0.9527E+00  0.9527E+00  0.6076E+01  0.6076E+01
     -6.877  0.1827E+01  0.1827E+01  0.6158E+01  0.6158E+01
     -6.833  0.3172E+01  0.3172E+01  0.6300E+01  0.6300E+01
     -6.788  0.4985E+01  0.4985E+01  0.6524E+01  0.6524E+01
     -6.743  0.7092E+01  0.7092E+01  0.6842E+01  0.6842E+01
     -6.698  0.9133E+01  0.9133E+01  0.7251E+01  0.7251E+01
     -6.653  0.1065E+02  0.1065E+02  0.7728E+01  0.7728E+01
     -6.609  0.1124E+02  0.1124E+02  0.8231E+01  0.8231E+01
     -6.564  0.1073E+02  0.1073E+02  0.8712E+01  0.8712E+01
     -6.519  0.9283E+01  0.9283E+01  0.9128E+01  0.9128E+01
     -6.474  0.7267E+01  0.7267E+01  0.9454E+01  0.9454E+01
     -6.429  0.5150E+01  0.5150E+01  0.9685E+01  0.9685E+01
     -6.385  0.3304E+01  0.3304E+01  0.9833E+01  0.9833E+01
     -6.340  0.1919E+01  0.1919E+01  0.9919E+01  0.9919E+01
     -6.295  0.1009E+01  0.1009E+01  0.9964E+01  0.9964E+01
     -6.250  0.4800E+00  0.4800E+00  0.9985E+01  0.9985E+01
     -6.205  0.2068E+00  0.2068E+00  0.9995E+01  0.9995E+01
     -6.160  0.8064E-01  0.8064E-01  0.9998E+01  0.9998E+01
     -6.116  0.2846E-01  0.2846E-01  0.9999E+01  0.9999E+01
     -6.071  0.9095E-02  0.9095E-02  0.1000E+02  0.1000E+02
     -6.026  0.2631E-02  0.2630E-02  0.1000E+02  0.1000E+02
     -5.981  0.6887E-03  0.6887E-03  0.1000E+02  0.1000E+02
     -5.936  0.1632E-03  0.1632E-03  0.1000E+02  0.1000E+02
     -5.892  0.3501E-04  0.3501E-04  0.1000E+02  0.1000E+02
     -5.847  0.6798E-05  0.6798E-05  0.1000E+02  0.1000E+02
     -5.802  0.1195E-05  0.1195E-05  0.1000E+02  0.1000E+02
     -5.757  0.1901E-06  0.1901E-06  0.1000E+02  0.1000E+02
     -5.712  0.2736E-07  0.2736E-07  0.1000E+02  0.1000E+02
     -5.668  0.3566E-08  0.3566E-08  0.1000E+02  0.1000E+02
     -5.623  0.4207E-09  0.4207E-09  0.1000E+02  0.1000E+02
     -5.578  0.4491E-10  0.4491E-10  0.1000E+02  0.1000E+02
     -5.533  0.4341E-11  0.4341E-11  0.1000E+02  0.1000E+02
     -5.488  0.3766E-12  0.3766E-12  0.1000E+02  0.1000E+02
     -5.444  0.3964E-13  0.3964E-13  0.1000E+02  0.1000E+02
     -5.399  0.0000E+00  0.0000E+00  0.1000E+02  0.1000E+02
     -5.354  0.0000E+00  0.0000E+00  0.1000E+02  0.1000E+02
     -5.309  0.0000E+00  0.0000E+00  0.1000E+02  0.1000E+02
     -5.264  0.1487E-13  0.1487E-13  0.1000E+02  0.1000E+02
     -5.220  0.1883E-12  0.1883E-12  0.1000E+02  0.1000E+02
     -5.175  0.2190E-11  0.2190E-11  0.1000E+02  0.1000E+02
     -5.130  0.2334E-10  0.2334E-10  0.1000E+02  0.1000E+02
     -5.085  0.2249E-09  0.2249E-09  0.1000E+02  0.1000E+02
     -5.040  0.1961E-08  0.1961E-08  0.1000E+02  0.1000E+02
     -4.995  0.1548E-07  0.1548E-07  0.1000E+02  0.1000E+02
     -4.951  0.1106E-06  0.1106E-06  0.1000E+02  0.1000E+02
     -4.906  0.7153E-06  0.7153E-06  0.1000E+02  0.1000E+02
     -4.861  0.4187E-05  0.4187E-05  0.1000E+02  0.1000E+02
     -4.816  0.2219E-04  0.2219E-04  0.1000E+02  0.1000E+02
     -4.771  0.1064E-03  0.1064E-03  0.1000E+02  0.1000E+02
     -4.727  0.4619E-03  0.4619E-03  0.1000E+02  0.1000E+02
     -4.682  0.1815E-02  0.1815E-02  0.1000E+02  0.1000E+02
     -4.637  0.6455E-02  0.6455E-02  0.1000E+02  0.1000E+02
     -4.592  0.2078E-01  0.2078E-01  0.1000E+02  0.1000E+02
     -4.547  0.6057E-01  0.6057E-01  0.1000E+02  0.1000E+02
     -4.503  0.1598E+00  0.1598E+00  0.1001E+02  0.1001E+02
     -4.458  0.3816E+00  0.3816E+00  0.1003E+02  0.1003E+02
     -4.413  0.8249E+00  0.8249E+00  0.1007E+02  0.1007E+02
     -4.368  0.1614E+01  0.1614E+01  0.1014E+02  0.1014E+02
     -4.323  0.2860E+01  0.2860E+01  0.1027E+02  0.1027E+02
     -4.279  0.4585E+01  0.4585E+01  0.1047E+02  0.1047E+02
     -4.234  0.6656E+01  0.6656E+01  0.1077E+02  0.1077E+02
     -4.189  0.8747E+01  0.8747E+01  0.1116E+02  0.1116E+02
     -4.144  0.1040E+02  0.1040E+02  0.1163E+02  0.1163E+02
     -4.099  0.1120E+02  0.1120E+02  0.1213E+02  0.1213E+02
     -4.055  0.1092E+02  0.1092E+02  0.1262E+02  0.1262E+02
     -4.010  0.9637E+01  0.9637E+01  0.1305E+02  0.1305E+02
     -3.965  0.7698E+01  0.7698E+01  0.1340E+02  0.1340E+02
     -3.920  0.5567E+01  0.5567E+01  0.1365E+02  0.1365E+02
     -3.875  0.3644E+01  0.3644E+01  0.1381E+02  0.1381E+02
     -3.830  0.2159E+01  0.2159E+01  0.1391E+02  0.1391E+02
     -3.786  0.1158E+01  0.1158E+01  0.1396E+02  0.1396E+02
     -3.741  0.5624E+00  0.5624E+00  0.1398E+02  0.1398E+02
     -3.696  0.2472E+00  0.2472E+00  0.1399E+02  0.1399E+02
     -3.651  0.9837E-01  0.9837E-01  0.1400E+02  0.1400E+02
     -3.606  0.3543E-01  0.3543E-01  0.1400E+02  0.1400E+02
     -3.562  0.1155E-01  0.1155E-01  0.1400E+02  0.1400E+02
     -3.517  0.3409E-02  0.3409E-02  0.1400E+02  0.1400E+02
     -3.472  0.9108E-03  0.9108E-03  0.1400E+02  0.1400E+02
     -3.427  0.2202E-03  0.2202E-03  0.1400E+02  0.1400E+02
     -3.382  0.4821E-04  0.4821E-04  0.1400E+02  0.1400E+02
     -3.338  0.9551E-05  0.9551E-05  0.1400E+02  0.1400E+02
     -3.293  0.1715E-05  0.1715E-05  0.1400E+02  0.1400E+02
     -3.248  0.2958E-06  0.2958E-06  0.1400E+02  0.1400E+02
     -3.203  0.1627E-06  0.1627E-06  0.1400E+02  0.1400E+02
     -3.158  0.7616E-06  0.7616E-06  0.1400E+02  0.1400E+02
     -3.114  0.4247E-05  0.4247E-05  0.1400E+02  0.1400E+02
     -3.069  0.2158E-04  0.2158E-04  0.1400E+02  0.1400E+02
     -3.024  0.9929E-04  0.9930E-04  0.1400E+02  0.1400E+02
     -2.979  0.4135E-03  0.4135E-03  0.1400E+02  0.1400E+02
     -2.934  0.1559E-02  0.1559E-02  0.1400E+02  0.1400E+02
     -2.890  0.5319E-02  0.5319E-02  0.1400E+02  0.1400E+02
     -2.845  0.1643E-01  0.1643E-01  0.1400E+02  0.1400E+02
     -2.800  0.4593E-01  0.4593E-01  0.1400E+02  0.1400E+02
     -2.755  0.1162E+00  0.1162E+00  0.1401E+02  0.1401E+02
     -2.710  0.2663E+00  0.2663E+00  0.1402E+02  0.1402E+02
     -2.666  0.5523E+00  0.5523E+00  0.1405E+02  0.1405E+02
     -2.621  0.1037E+01  0.1037E+01  0.1409E+02  0.1409E+02
     -2.576  0.1762E+01  0.1762E+01  0.1417E+02  0.1417E+02
     -2.531  0.2711E+01  0.2711E+01  0.1429E+02  0.1429E+02
     -2.486  0.3775E+01  0.3775E+01  0.1446E+02  0.1446E+02
     -2.441  0.4759E+01  0.4759E+01  0.1467E+02  0.1467E+02
     -2.397  0.5430E+01  0.5430E+01  0.1492E+02  0.1492E+02
     -2.352  0.5610E+01  0.5610E+01  0.1517E+02  0.1517E+02
     -2.307  0.5246E+01  0.5246E+01  0.1540E+02  0.1540E+02
     -2.262  0.4441E+01  0.4441E+01  0.1560E+02  0.1560E+02
     -2.217  0.3404E+01  0.3404E+01  0.1576E+02  0.1576E+02
     -2.173  0.2361E+01  0.2361E+01  0.1586E+02  0.1586E+02
     -2.128  0.1483E+01  0.1483E+01  0.1593E+02  0.1593E+02
     -2.083  0.8429E+00  0.8429E+00  0.1597E+02  0.1597E+02
     -2.038  0.4338E+00  0.4338E+00  0.1598E+02  0.1598E+02
     -1.993  0.2021E+00  0.2021E+00  0.1599E+02  0.1599E+02
     -1.949  0.8521E-01  0.8521E-01  0.1600E+02  0.1600E+02
     -1.904  0.3253E-01  0.3253E-01  0.1600E+02  0.1600E+02
     -1.859  0.1124E-01  0.1124E-01  0.1600E+02  0.1600E+02
     -1.814  0.3515E-02  0.3515E-02  0.1600E+02  0.1600E+02
     -1.769  0.9953E-03  0.9953E-03  0.1600E+02  0.1600E+02
     -1.725  0.2551E-03  0.2551E-03  0.1600E+02  0.1600E+02
     -1.680  0.5917E-04  0.5917E-04  0.1600E+02  0.1600E+02
     -1.635  0.1242E-04  0.1242E-04  0.1600E+02  0.1600E+02
     -1.590  0.2362E-05  0.2361E-05  0.1600E+02  0.1600E+02
     -1.545  0.4063E-06  0.4063E-06  0.1600E+02  0.1600E+02
     -1.501  0.6326E-07  0.6326E-07  0.1600E+02  0.1600E+02
     -1.456  0.8916E-08  0.8916E-08  0.1600E+02  0.1600E+02
     -1.411  0.1137E-08  0.1137E-08  0.1600E+02  0.1600E+02
     -1.366  0.1313E-09  0.1313E-09  0.1600E+02  0.1600E+02
     -1.321  0.1373E-10  0.1373E-10  0.1600E+02  0.1600E+02
     -1.276  0.1338E-11  0.1338E-11  0.1600E+02  0.1600E+02
     -1.232  0.6244E-12  0.6219E-12  0.1600E+02  0.1600E+02
     -1.187  0.5905E-11  0.5880E-11  0.1600E+02  0.1600E+02
     -1.142  0.6098E-10  0.6072E-10  0.1600E+02  0.1600E+02
     -1.097  0.5711E-09  0.5687E-09  0.1600E+02  0.1600E+02
     -1.052  0.4843E-08  0.4822E-08  0.1600E+02  0.1600E+02
     -1.008  0.3718E-07  0.3702E-07  0.1600E+02  0.1600E+02
     -0.963  0.2585E-06  0.2574E-06  0.1600E+02  0.1600E+02
     -0.918  0.1627E-05  0.1620E-05  0.1600E+02  0.1600E+02
     -0.873  0.9271E-05  0.9232E-05  0.1600E+02  0.1600E+02
     -0.828  0.4784E-04  0.4764E-04  0.1600E+02  0.1600E+02
     -0.784  0.2236E-03  0.2226E-03  0.1600E+02  0.1600E+02
     -0.739  0.9459E-03  0.9421E-03  0.1600E+02  0.1600E+02
     -0.694  0.3624E-02  0.3610E-02  0.1600E+02  0.1600E+02
     -0.649  0.1257E-01  0.1253E-01  0.1600E+02  0.1600E+02
     -0.604  0.3951E-01  0.3937E-01  0.1600E+02  0.1600E+02
     -0.560  0.1124E+00  0.1120E+00  0.1601E+02  0.1601E+02
     -0.515  0.2897E+00  0.2888E+00  0.1602E+02  0.1602E+02
     -0.470  0.6761E+00  0.6740E+00  0.1605E+02  0.1605E+02
     -0.425  0.1429E+01  0.1425E+01  0.1611E+02  0.1611E+02
     -0.380  0.2735E+01  0.2728E+01  0.1624E+02  0.1624E+02
     -0.336  0.4741E+01  0.4731E+01  0.1645E+02  0.1645E+02
     -0.291  0.7444E+01  0.7430E+01  0.1678E+02  0.1678E+02
     -0.246  0.1059E+02  0.1057E+02  0.1726E+02  0.1726E+02
     -0.201  0.1363E+02  0.1362E+02  0.1787E+02  0.1787E+02
     -0.156  0.1591E+02  0.1589E+02  0.1858E+02  0.1858E+02
     -0.111  0.1681E+02  0.1680E+02  0.1933E+02  0.1933E+02
     -0.067  0.1608E+02  0.1609E+02  0.2006E+02  0.2005E+02
     -0.022  0.1394E+02  0.1395E+02  0.2068E+02  0.2068E+02
      0.023  0.1095E+02  0.1097E+02  0.2117E+02  0.2117E+02
      0.068  0.7800E+01  0.7815E+01  0.2152E+02  0.2152E+02
      0.113  0.5059E+01  0.5072E+01  0.2175E+02  0.2175E+02
      0.157  0.3039E+01  0.3048E+01  0.2188E+02  0.2188E+02
      0.202  0.1807E+01  0.1811E+01  0.2196E+02  0.2196E+02
      0.247  0.1284E+01  0.1282E+01  0.2202E+02  0.2202E+02
      0.292  0.1344E+01  0.1337E+01  0.2208E+02  0.2208E+02
      0.337  0.1868E+01  0.1857E+01  0.2217E+02  0.2216E+02
      0.381  0.2731E+01  0.2717E+01  0.2229E+02  0.2229E+02
      0.426  0.3764E+01  0.3749E+01  0.2246E+02  0.2245E+02
      0.471  0.4742E+01  0.4730E+01  0.2267E+02  0.2267E+02
      0.516  0.5421E+01  0.5414E+01  0.2291E+02  0.2291E+02
      0.561  0.5612E+01  0.5614E+01  0.2316E+02  0.2316E+02
      0.605  0.5261E+01  0.5269E+01  0.2340E+02  0.2340E+02
      0.650  0.4464E+01  0.4477E+01  0.2360E+02  0.2360E+02
      0.695  0.3429E+01  0.3444E+01  0.2375E+02  0.2375E+02
      0.740  0.2384E+01  0.2398E+01  0.2386E+02  0.2386E+02
      0.785  0.1501E+01  0.1512E+01  0.2393E+02  0.2393E+02
      0.829  0.8552E+00  0.8626E+00  0.2396E+02  0.2396E+02
      0.874  0.4411E+00  0.4456E+00  0.2398E+02  0.2398E+02
      0.919  0.2060E+00  0.2083E+00  0.2399E+02  0.2399E+02
      0.964  0.8706E-01  0.8818E-01  0.2400E+02  0.2400E+02
      1.009  0.3331E-01  0.3379E-01  0.2400E+02  0.2400E+02
      1.053  0.1154E-01  0.1172E-01  0.2400E+02  0.2400E+02
      1.098  0.3617E-02  0.3679E-02  0.2400E+02  0.2400E+02
      1.143  0.1027E-02  0.1046E-02  0.2400E+02  0.2400E+02
      1.188  0.2637E-03  0.2690E-03  0.2400E+02  0.2400E+02
      1.233  0.6132E-04  0.6263E-04  0.2400E+02  0.2400E+02
      1.278  0.1291E-04  0.1320E-04  0.2400E+02  0.2400E+02
      1.322  0.2459E-05  0.2518E-05  0.2400E+02  0.2400E+02
      1.367  0.4240E-06  0.4349E-06  0.2400E+02  0.2400E+02
      1.412  0.6618E-07  0.6797E-07  0.2400E+02  0.2400E+02
      1.457  0.9349E-08  0.9616E-08  0.2400E+02  0.2400E+02
      1.502  0.1195E-08  0.1231E-08  0.2400E+02  0.2400E+02
      1.546  0.1383E-09  0.1427E-09  0.2400E+02  0.2400E+02
      1.591  0.1449E-10  0.1497E-10  0.2400E+02  0.2400E+02
      1.636  0.1373E-11  0.1427E-11  0.2400E+02  0.2400E+02
      1.681  0.1189E-12  0.1189E-12  0.2400E+02  0.2400E+02
      1.726  0.9911E-14  0.9911E-14  0.2400E+02  0.2400E+02
      1.770  0.0000E+00  0.0000E+00  0.2400E+02  0.2400E+02
      1.815  0.0000E+00  0.0000E+00  0.2400E+02  0.2400E+02
      1.860  0.0000E+00  0.0000E+00  0.2400E+02  0.2400E+02
      1.905  0.0000E+00  0.0000E+00  0.2400E+02  0.2400E+02
      1.950  0.0000E+00  0.0000E+00  0.2400E+02  0.2400E+02
      1.994  0.0000E+00  0.0000E+00  0.2400E+02  0.2400E+02
      2.039  0.0000E+00  0.0000E+00  0.2400E+02  0.2400E+02
      2.084  0.0000E+00  0.0000E+00  0.2400E+02  0.2400E+02
      2.129  0.0000E+00  0.0000E+00  0.2400E+02  0.2400E+02
      2.174  0.0000E+00  0.0000E+00  0.2400E+02  0.2400E+02
      2.218  0.0000E+00  0.0000E+00  0.2400E+02  0.2400E+02
      2.263  0.0000E+00  0.0000E+00  0.2400E+02  0.2400E+02
      2.308  0.0000E+00  0.0000E+00  0.2400E+02  0.2400E+02
      2.353  0.0000E+00  0.0000E+00  0.2400E+02  0.2400E+02
      2.398  0.0000E+00  0.0000E+00  0.2400E+02  0.2400E+02
      2.443  0.0000E+00  0.0000E+00  0.2400E+02  0.2400E+02
      2.487  0.0000E+00  0.0000E+00  0.2400E+02  0.2400E+02
      2.532  0.0000E+00  0.0000E+00  0.2400E+02  0.2400E+02
