    8    8    1    2
  0.4275000E+03  0.1500000E-08  0.1500000E-08  0.1520000E-08  0.5000000E-15
  1.000000000000000E-004
  CAR 
 unknown system                          
      8      1     12
 
  0.0000000E+00  0.0000000E+00  0.0000000E+00  0.1000000E+01
    1       -8.910039     -8.910039   1.000000   1.000000
    2       -8.327120     -8.327120   1.000000   1.000000
    3       -8.327120     -8.327120   1.000000   1.000000
    4       -6.629112     -6.629112   0.500000   0.500000
    5       -6.629112     -6.629112   0.500000   0.500000
    6       -4.110831     -4.110831   0.000000   0.000000
    7       -4.110831     -4.110831   0.000000   0.000000
    8       -2.382026     -2.382026   0.000000   0.000000
    9       -0.138876     -0.138890   0.000000   0.000000
   10       -0.138876     -0.138890   0.000000   0.000000
   11       -0.116343     -0.115651   0.000000   0.000000
   12        0.531501      0.532130   0.000000   0.000000
