       N       E                     dE             d eps       ncg     rms          rms(c)
DAV:   1     0.944594047041E+01    0.94459E+01   -0.93580E+02    56   0.182E+02
DAV:   2    -0.973622634723E+01   -0.19182E+02   -0.19130E+02    84   0.505E+01
DAV:   3    -0.113289171570E+02   -0.15927E+01   -0.14114E+01    80   0.170E+01
DAV:   4    -0.113494889310E+02   -0.20572E-01   -0.20073E-01    64   0.143E+00
DAV:   5    -0.113495153456E+02   -0.26415E-04   -0.26415E-04    60   0.648E-02    0.129E+00
DAV:   6    -0.113855831387E+02   -0.36068E-01   -0.79356E-03    56   0.499E-01    0.798E-01
DAV:   7    -0.114184623892E+02   -0.32879E-01   -0.17753E-02    52   0.713E-01    0.558E-02
DAV:   8    -0.114197201052E+02   -0.12577E-02   -0.29466E-04    96   0.797E-02    0.168E-02
DAV:   9    -0.114200880062E+02   -0.36790E-03   -0.83220E-05    48   0.441E-02    0.969E-03
DAV:  10    -0.114203293499E+02   -0.24134E-03   -0.38426E-05    48   0.269E-02    0.593E-03
DAV:  11    -0.114204141824E+02   -0.84833E-04   -0.11934E-05    48   0.172E-02    0.281E-03
DAV:  12    -0.114205082369E+02   -0.94054E-04   -0.76502E-06    48   0.118E-02    0.257E-03
DAV:  13    -0.114206071387E+02   -0.98902E-04   -0.45659E-06    48   0.902E-03    0.120E-03
DAV:  14    -0.114206765149E+02   -0.69376E-04   -0.24548E-06    48   0.651E-03    0.108E-03
DAV:  15    -0.114207336911E+02   -0.57176E-04   -0.23817E-06    48   0.585E-03    0.490E-04
DAV:  16    -0.114207522778E+02   -0.18587E-04   -0.54013E-07    32   0.297E-03    0.228E-04
DAV:  17    -0.114207583017E+02   -0.60239E-05   -0.10180E-07    40   0.132E-03    0.152E-04
DAV:  18    -0.114207612661E+02   -0.29643E-05   -0.52421E-08    32   0.980E-04    0.366E-05
DAV:  19    -0.114207618365E+02   -0.57043E-06   -0.58368E-09    48   0.398E-04
   1 F= -.11420762E+02 E0= -.11307924E+02  d E =-.225676E+00  mag=     0.0000
