<?xml version="1.0" encoding="ISO-8859-1"?>
<modeling>
 <generator>
  <i name="program" type="string">vasp </i>
  <i name="version" type="string">5.4.4.18Apr17-6-g9f103f2a35  </i>
  <i name="subversion" type="string">(build Aug 24 2024 05:40:03) complex            parallel </i>
  <i name="platform" type="string">IFC22_IMPI </i>
  <i name="date" type="string">2024 11 22 </i>
  <i name="time" type="string">21:43:17 </i>
 </generator>
 <incar>
  <i type="string" name="PREC">normal</i>
  <i type="int" name="ISPIN">     2</i>
  <i type="int" name="ICHARG">     2</i>
  <i type="int" name="NELM">   100</i>
  <i name="EDIFF">      0.00000100</i>
  <i type="int" name="NSW">     0</i>
  <i name="ENCUT">    300.00000000</i>
  <i name="NUPDOWN">      0.00000000</i>
  <i type="int" name="ISMEAR">     0</i>
  <i name="SIGMA">      0.20000000</i>
  <i type="logical" name="LWAVE"> F  </i>
  <i type="logical" name="LCHARG"> F  </i>
  <v type="int" name="KPOINT_BSE">    -1     0     0     0</v>
  <i type="int" name="NELM">   100</i>
 </incar>
 <structure name="primitive_cell" >
  <crystal>
   <varray name="basis" >
    <v>      15.00000000       0.00000000       0.00000000 </v>
    <v>       0.00000000      15.00000000       0.00000000 </v>
    <v>       0.00000000       0.00000000       1.90000000 </v>
   </varray>
   <i name="volume">    427.50000000 </i>
   <varray name="rec_basis" >
    <v>       0.06666667      -0.00000000       0.00000000 </v>
    <v>       0.00000000       0.06666667       0.00000000 </v>
    <v>      -0.00000000      -0.00000000       0.52631579 </v>
   </varray>
  </crystal>
  <varray name="positions" >
   <v>       0.00000000       0.00000000       0.00000000 </v>
  </varray>
 </structure>
 <varray name="primitive_index" >
  <v type="int" >        1 </v>
 </varray>
 <kpoints>
  <generation param="Gamma">
   <v type="int" name="divisions">       1        1        1 </v>
   <v name="usershift">      0.00000000       0.00000000       0.00000000 </v>
   <v name="genvec1">      1.00000000      -0.00000000       0.00000000 </v>
   <v name="genvec2">      0.00000000       1.00000000       0.00000000 </v>
   <v name="genvec3">     -0.00000000      -0.00000000       1.00000000 </v>
   <v name="shift">      0.00000000       0.00000000       0.00000000 </v>
  </generation>
  <varray name="kpointlist" >
   <v>       0.00000000       0.00000000       0.00000000 </v>
  </varray>
  <varray name="weights" >
   <v>       1.00000000 </v>
  </varray>
 </kpoints>
 <parameters>
  <separator name="general" >
   <i type="string" name="SYSTEM">unknown system</i>
   <i type="logical" name="LCOMPAT"> F  </i>
  </separator>
  <separator name="electronic" >
   <i type="string" name="PREC">normal</i>
   <i name="ENMAX">    300.00000000</i>
   <i name="ENAUG">    400.00000000</i>
   <i name="EDIFF">      0.00000100</i>
   <i type="int" name="IALGO">    38</i>
   <i type="int" name="IWAVPR">    10</i>
   <i type="int" name="NBANDS">    12</i>
   <i name="NELECT">      8.00000000</i>
   <i type="int" name="TURBO">     0</i>
   <i type="int" name="IRESTART">     0</i>
   <i type="int" name="NREBOOT">     0</i>
   <i type="int" name="NMIN">     0</i>
   <i name="EREF">      0.00000000</i>
   <separator name="electronic smearing" >
    <i type="int" name="ISMEAR">     0</i>
    <i name="SIGMA">      0.20000000</i>
    <i name="KSPACING">      0.50000000</i>
    <i type="logical" name="KGAMMA"> T  </i>
   </separator>
   <separator name="electronic projectors" >
    <i type="logical" name="LREAL"> F  </i>
    <v name="ROPT">      0.00000000</v>
    <i type="int" name="LMAXPAW">  -100</i>
    <i type="int" name="LMAXMIX">     2</i>
    <i type="logical" name="NLSPLINE"> F  </i>
   </separator>
   <separator name="electronic startup" >
    <i type="int" name="ISTART">     0</i>
    <i type="int" name="ICHARG">     2</i>
    <i type="int" name="INIWAV">     1</i>
   </separator>
   <separator name="electronic spin" >
    <i type="int" name="ISPIN">     2</i>
    <i type="logical" name="LNONCOLLINEAR"> F  </i>
    <v name="MAGMOM">      0.00000000      0.00000000      0.00000000      0.00000000      0.00000000      0.00000000      0.00000000      0.00000000</v>
    <i name="NUPDOWN">      0.00000000</i>
    <i type="logical" name="LSORBIT"> F  </i>
    <v name="SAXIS">      0.00000000      0.00000000      1.00000000</v>
    <i type="logical" name="LSPIRAL"> F  </i>
    <v name="QSPIRAL">      0.00000000      0.00000000      0.00000000</v>
    <i type="logical" name="LZEROZ"> F  </i>
   </separator>
   <separator name="electronic exchange-correlation" >
    <i type="logical" name="LASPH"> F  </i>
    <i type="logical" name="LMETAGGA"> F  </i>
   </separator>
   <separator name="electronic convergence" >
    <i type="int" name="NELM">   100</i>
    <i type="int" name="NELMDL">    -5</i>
    <i type="int" name="NELMIN">     2</i>
    <i name="ENINI">    300.00000000</i>
    <separator name="electronic convergence detail" >
     <i type="logical" name="LDIAG"> T  </i>
     <i type="logical" name="LSUBROT"> F  </i>
     <i name="WEIMIN">      0.00000000</i>
     <i name="EBREAK">      0.00000002</i>
     <i name="DEPER">      0.30000000</i>
     <i type="int" name="NRMM">     4</i>
     <i name="TIME">      0.40000000</i>
    </separator>
   </separator>
   <separator name="electronic mixer" >
    <i name="AMIX">      0.40000000</i>
    <i name="BMIX">      1.00000000</i>
    <i name="AMIN">      0.10000000</i>
    <i name="AMIX_MAG">      1.60000000</i>
    <i name="BMIX_MAG">      1.00000000</i>
    <separator name="electronic mixer details" >
     <i type="int" name="IMIX">     4</i>
     <i type="logical" name="MIXFIRST"> F  </i>
     <i type="int" name="MAXMIX">   -45</i>
     <i name="WC">    100.00000000</i>
     <i type="int" name="INIMIX">     1</i>
     <i type="int" name="MIXPRE">     1</i>
     <i type="int" name="MREMOVE">     5</i>
    </separator>
   </separator>
   <separator name="electronic dipolcorrection" >
    <i type="logical" name="LDIPOL"> F  </i>
    <i type="logical" name="LMONO"> F  </i>
    <i type="int" name="IDIPOL">     0</i>
    <i name="EPSILON">      1.00000000</i>
    <v name="DIPOL">   -100.00000000   -100.00000000   -100.00000000</v>
    <i name="EFIELD">      0.00000000</i>
   </separator>
  </separator>
  <separator name="grids" >
   <i type="int" name="NGX">    64</i>
   <i type="int" name="NGY">    64</i>
   <i type="int" name="NGZ">    64</i>
   <i type="int" name="NGXF">   128</i>
   <i type="int" name="NGYF">   128</i>
   <i type="int" name="NGZF">   128</i>
   <i type="logical" name="ADDGRID"> F  </i>
  </separator>
  <separator name="ionic" >
   <i type="int" name="NSW">     0</i>
   <i type="int" name="IBRION">    -1</i>
   <i type="int" name="MDALGO">     0</i>
   <i type="int" name="ISIF">     2</i>
   <i name="PSTRESS">      0.00000000</i>
   <i name="EDIFFG">      0.00001000</i>
   <i type="int" name="NFREE">     0</i>
   <i name="POTIM">      0.50000000</i>
   <i name="SMASS">     -3.00000000</i>
   <i name="SCALEE">      1.00000000</i>
  </separator>
  <separator name="ionic md" >
   <i name="TEBEG">      0.00010000</i>
   <i name="TEEND">      0.00010000</i>
   <i type="int" name="NBLOCK">     1</i>
   <i type="int" name="KBLOCK">     1</i>
   <i type="int" name="NPACO">   256</i>
   <i name="APACO">     16.00000000</i>
  </separator>
  <separator name="symmetry" >
   <i type="int" name="ISYM">     2</i>
   <i name="SYMPREC">      0.00001000</i>
  </separator>
  <separator name="dos" >
   <i type="int" name="LORBIT">     0</i>
   <v name="RWIGS">     -1.00000000</v>
   <i type="int" name="NEDOS">   301</i>
   <i name="EMIN">     10.00000000</i>
   <i name="EMAX">    -10.00000000</i>
   <i name="EFERMI">      0.00000000</i>
  </separator>
  <separator name="writing" >
   <i type="int" name="NWRITE">     2</i>
   <i type="logical" name="LWAVE"> F  </i>
   <i type="logical" name="LDOWNSAMPLE"> F  </i>
   <i type="logical" name="LCHARG"> F  </i>
   <i type="logical" name="LPARD"> F  </i>
   <i type="logical" name="LVTOT"> F  </i>
   <i type="logical" name="LVHAR"> F  </i>
   <i type="logical" name="LELF"> F  </i>
   <i type="logical" name="LOPTICS"> F  </i>
   <v name="STM">      0.00000000      0.00000000      0.00000000      0.00000000      0.00000000      0.00000000      0.00000000</v>
  </separator>
  <separator name="performance" >
   <i type="int" name="NPAR">     4</i>
   <i type="int" name="NSIM">     4</i>
   <i type="int" name="NBLK">    -1</i>
   <i type="logical" name="LPLANE"> T  </i>
   <i type="logical" name="LSCALAPACK"> T  </i>
   <i type="logical" name="LSCAAWARE"> F  </i>
   <i type="logical" name="LSCALU"> F  </i>
   <i type="logical" name="LASYNC"> F  </i>
   <i type="logical" name="LORBITALREAL"> F  </i>
  </separator>
  <separator name="miscellaneous" >
   <i type="int" name="IDIOT">     3</i>
   <i type="int" name="ISPECIAL">     0</i>
   <i type="logical" name="LMUSIC"> F  </i>
   <v name="POMASS">      1.00000000</v>
   <v name="DARWINR">      0.00000000</v>
   <v name="DARWINV">      1.00000000</v>
   <i type="logical" name="LCORR"> T  </i>
  </separator>
  <i type="logical" name="GGA_COMPAT"> T  </i>
  <i type="logical" name="LBERRY"> F  </i>
  <i type="int" name="ICORELEVEL">     0</i>
  <i type="logical" name="LDAU"> F  </i>
  <i type="int" name="I_CONSTRAINED_M">     0</i>
  <separator name="electronic exchange-correlation" >
   <i type="string" name="GGA">--</i>
   <i type="int" name="VOSKOWN">     0</i>
   <i type="logical" name="LHFCALC"> F  </i>
   <i type="string" name="PRECFOCK"></i>
   <i type="logical" name="LSYMGRAD"> F  </i>
   <i type="logical" name="LHFONE"> F  </i>
   <i type="logical" name="LRHFCALC"> F  </i>
   <i type="logical" name="LTHOMAS"> F  </i>
   <i type="logical" name="LMODELHF"> F  </i>
   <i name="ENCUT4O">     -1.00000000</i>
   <i type="int" name="EXXOEP">     0</i>
   <i type="int" name="FOURORBIT">     0</i>
   <i name="AEXX">      0.00000000</i>
   <i name="HFALPHA">      0.00000000</i>
   <i name="MCALPHA">      0.00000000</i>
   <i name="ALDAX">      1.00000000</i>
   <i name="AGGAX">      1.00000000</i>
   <i name="ALDAC">      1.00000000</i>
   <i name="AGGAC">      1.00000000</i>
   <i type="int" name="NKREDX">     1</i>
   <i type="int" name="NKREDY">     1</i>
   <i type="int" name="NKREDZ">     1</i>
   <i type="logical" name="SHIFTRED"> F  </i>
   <i type="logical" name="ODDONLY"> F  </i>
   <i type="logical" name="EVENONLY"> F  </i>
   <i type="int" name="LMAXFOCK">     0</i>
   <i type="int" name="NMAXFOCKAE">     0</i>
   <i type="logical" name="LFOCKAEDFT"> F  </i>
   <i name="HFSCREEN">      0.00000000</i>
   <i name="HFSCREENC">      0.00000000</i>
   <i type="int" name="NBANDSGWLOW">     0</i>
  </separator>
  <separator name="vdW DFT" >
   <i type="logical" name="LUSE_VDW"> F  </i>
   <i name="Zab_VDW">     -0.84910000</i>
   <i name="PARAM1">      0.12340000</i>
   <i name="PARAM2">      1.00000000</i>
   <i name="PARAM3">      0.00000000</i>
  </separator>
  <separator name="model GW" >
   <i type="int" name="MODEL_GW">     0</i>
   <i name="MODEL_EPS0">    256.50000000</i>
   <i name="MODEL_ALPHA">      1.00000000</i>
  </separator>
  <separator name="linear response parameters" >
   <i type="logical" name="LEPSILON"> F  </i>
   <i type="logical" name="LRPA"> F  </i>
   <i type="logical" name="LNABLA"> F  </i>
   <i type="logical" name="LVEL"> F  </i>
   <i type="int" name="KINTER">     0</i>
   <i name="CSHIFT">      0.10000000</i>
   <i name="OMEGAMAX">     -1.00000000</i>
   <i name="DEG_THRESHOLD">      0.00200000</i>
   <i name="RTIME">     -0.10000000</i>
   <i name="WPLASMAI">      0.00000000</i>
   <v name="DFIELD">      0.00000000      0.00000000      0.00000000</v>
   <v name="WPLASMA">      0.00000000      0.00000000      0.00000000      0.00000000      0.00000000      0.00000000      0.00000000      0.00000000      0.00000000</v>
  </separator>
  <separator name="orbital magnetization" >
   <i type="logical" name="NUCIND"> F  </i>
   <v name="MAGPOS">      0.00000000      0.00000000      0.00000000</v>
   <i type="logical" name="LNICSALL"> T  </i>
   <i type="logical" name="ORBITALMAG"> F  </i>
   <i type="logical" name="LMAGBLOCH"> F  </i>
   <i type="logical" name="LCHIMAG"> F  </i>
   <i type="logical" name="LGAUGE"> T  </i>
   <i type="int" name="MAGATOM">     0</i>
   <v name="MAGDIPOL">      0.00000000      0.00000000      0.00000000</v>
   <v name="AVECCONST">      0.00000000      0.00000000      0.00000000</v>
  </separator>
  <separator name="response functions" >
   <i type="logical" name="LADDER"> F  </i>
   <i type="logical" name="LRPAFORCE"> F  </i>
   <i type="logical" name="LFXC"> F  </i>
   <i type="logical" name="LHARTREE"> T  </i>
   <i type="int" name="IBSE">     0</i>
   <v type="int" name="KPOINT">    -1     0     0     0</v>
   <i type="logical" name="LTCTE"> F  </i>
   <i type="logical" name="LTETE"> F  </i>
   <i type="logical" name="LTRIPLET"> F  </i>
   <i type="logical" name="LFXCEPS"> F  </i>
   <i type="logical" name="LFXHEG"> F  </i>
   <i type="int" name="NATURALO">     2</i>
   <i type="logical" name="L2ORDER"> F  </i>
   <i type="logical" name="LMP2LT"> F  </i>
   <i type="logical" name="LUSEW"> F  </i>
   <i name="ENCUTGW">     -2.00000000</i>
   <i name="ENCUTGWSOFT">     -2.00000000</i>
   <i name="ENCUTLF">     -1.00000000</i>
   <i type="int" name="LMAXMP2">    -1</i>
   <i name="SCISSOR">      0.00000000</i>
   <i type="int" name="NOMEGA">     0</i>
   <i type="int" name="NOMEGAR">     0</i>
   <i type="int" name="NBANDSGW">    -1</i>
   <i type="int" name="NBANDSO">    -1</i>
   <i type="int" name="NBANDSV">    -1</i>
   <i type="int" name="NELM">   100</i>
   <i type="int" name="NELMHF">     1</i>
   <i type="int" name="DIM">     3</i>
   <i type="int" name="ANTIRES">     0</i>
   <i name="OMEGAMAX">    -30.00000000</i>
   <i name="OMEGAMIN">    -30.00000000</i>
   <i name="OMEGATL">   -200.00000000</i>
   <i type="int" name="OMEGAGRID">   140</i>
   <i name="CSHIFT">     -0.10000000</i>
   <i type="logical" name="SELFENERGY"> F  </i>
   <i type="logical" name="LSPECTRAL"> F  </i>
   <i type="logical" name="LSPECTRALGW"> F  </i>
   <i type="logical" name="LSINGLES"> F  </i>
   <i type="logical" name="LFERMIGW"> F  </i>
   <i type="logical" name="ODDONLYGW"> F  </i>
   <i type="logical" name="EVENONLYGW"> F  </i>
   <i type="int" name="NKREDLFX">     1</i>
   <i type="int" name="NKREDLFY">     1</i>
   <i type="int" name="NKREDLFZ">     1</i>
   <i type="int" name="MAXMEM">  2800</i>
   <i type="int" name="TELESCOPE">     0</i>
   <i type="int" name="TAUPAR">     1</i>
   <i type="int" name="OMEGAPAR">    -1</i>
   <i name="LAMBDA">      1.00000000</i>
  </separator>
  <separator name="External order field" >
   <i name="OFIELD_KAPPA">      0.00000000</i>
   <v name="OFIELD_K">      0.00000000      0.00000000      0.00000000</v>
   <i name="OFIELD_Q6_NEAR">      0.00000000</i>
   <i name="OFIELD_Q6_FAR">      0.00000000</i>
   <i name="OFIELD_A">      0.00000000</i>
  </separator>
 </parameters>
 <atominfo>
  <atoms>       8 </atoms>
  <types>       1 </types>
  <array name="atoms" >
   <dimension dim="1">ion</dimension>
   <field type="string">element</field>
   <field type="int">atomtype</field>
   <set>
    <rc><c>H </c><c>   1</c></rc>
    <rc><c>H </c><c>   1</c></rc>
    <rc><c>H </c><c>   1</c></rc>
    <rc><c>H </c><c>   1</c></rc>
    <rc><c>H </c><c>   1</c></rc>
    <rc><c>H </c><c>   1</c></rc>
    <rc><c>H </c><c>   1</c></rc>
    <rc><c>H </c><c>   1</c></rc>
   </set>
  </array>
  <array name="atomtypes" >
   <dimension dim="1">type</dimension>
   <field type="int">atomspertype</field>
   <field type="string">element</field>
   <field>mass</field>
   <field>valence</field>
   <field type="string">pseudopotential</field>
   <set>
    <rc><c>   8</c><c>H </c><c>      1.00000000</c><c>      1.00000000</c><c>  PAW_PBE H 15Jun2001                   </c></rc>
   </set>
  </array>
 </atominfo>
 <structure name="initialpos" >
  <crystal>
   <varray name="basis" >
    <v>      15.00000000       0.00000000       0.00000000 </v>
    <v>       0.00000000      15.00000000       0.00000000 </v>
    <v>       0.00000000       0.00000000      15.20000000 </v>
   </varray>
   <i name="volume">   3420.00000000 </i>
   <varray name="rec_basis" >
    <v>       0.06666667      -0.00000000       0.00000000 </v>
    <v>       0.00000000       0.06666667       0.00000000 </v>
    <v>      -0.00000000      -0.00000000       0.06578947 </v>
   </varray>
  </crystal>
  <varray name="positions" >
   <v>       0.00000000       0.00000000       0.00000000 </v>
   <v>       0.00000000       0.00000000       0.12500000 </v>
   <v>       0.00000000       0.00000000       0.25000000 </v>
   <v>       0.00000000       0.00000000       0.37500000 </v>
   <v>       0.00000000       0.00000000       0.50000000 </v>
   <v>       0.00000000       0.00000000       0.62500000 </v>
   <v>       0.00000000       0.00000000       0.75000000 </v>
   <v>       0.00000000       0.00000000       0.87500000 </v>
  </varray>
 </structure>
 <calculation>
  <scstep>
   <time name="dav">    0.56    0.56</time>
   <time name="total">    1.33    1.33</time>
   <energy>
    <i name="alphaZ">      0.04558910 </i>
    <i name="ewald">     38.78737864 </i>
    <i name="hartreedc">   -100.53869603 </i>
    <i name="XCdc">     15.87939744 </i>
    <i name="pawpsdc">     17.07221949 </i>
    <i name="pawaedc">    -17.14324176 </i>
    <i name="eentropy">     -0.00026187 </i>
    <i name="bandstr">    -44.22264761 </i>
    <i name="atom">     99.56620307 </i>
    <i name="e_fr_energy">      9.44594047 </i>
    <i name="e_wo_entrp">      9.44620234 </i>
    <i name="e_0_energy">      9.44607140 </i>
   </energy>
  </scstep>
  <scstep>
   <time name="dav">    0.75    0.75</time>
   <time name="total">    0.75    0.75</time>
   <energy>
    <i name="e_fr_energy">     -9.73622635 </i>
    <i name="e_wo_entrp">     -9.70465232 </i>
    <i name="e_0_energy">     -9.72043934 </i>
   </energy>
  </scstep>
  <scstep>
   <time name="dav">    0.72    0.72</time>
   <time name="total">    0.72    0.72</time>
   <energy>
    <i name="e_fr_energy">    -11.32891716 </i>
    <i name="e_wo_entrp">    -11.10373811 </i>
    <i name="e_0_energy">    -11.21632763 </i>
   </energy>
  </scstep>
  <scstep>
   <time name="dav">    0.60    0.60</time>
   <time name="total">    0.60    0.62</time>
   <energy>
    <i name="e_fr_energy">    -11.34948893 </i>
    <i name="e_wo_entrp">    -11.12381310 </i>
    <i name="e_0_energy">    -11.23665101 </i>
   </energy>
  </scstep>
  <scstep>
   <time name="dav">    0.59    0.61</time>
   <time name="total">    0.82    0.82</time>
   <energy>
    <i name="e_fr_energy">    -11.34951535 </i>
    <i name="e_wo_entrp">    -11.12383951 </i>
    <i name="e_0_energy">    -11.23667743 </i>
   </energy>
  </scstep>
  <scstep>
   <time name="dav">    0.55    0.55</time>
   <time name="total">    1.58    1.58</time>
   <energy>
    <i name="e_fr_energy">    -11.38558314 </i>
    <i name="e_wo_entrp">    -11.15990731 </i>
    <i name="e_0_energy">    -11.27274522 </i>
   </energy>
  </scstep>
  <scstep>
   <time name="dav">    0.52    0.52</time>
   <time name="total">    1.54    1.54</time>
   <energy>
    <i name="e_fr_energy">    -11.41846239 </i>
    <i name="e_wo_entrp">    -11.19278656 </i>
    <i name="e_0_energy">    -11.30562447 </i>
   </energy>
  </scstep>
  <scstep>
   <time name="dav">    0.84    0.84</time>
   <time name="total">    1.87    1.87</time>
   <energy>
    <i name="e_fr_energy">    -11.41972011 </i>
    <i name="e_wo_entrp">    -11.19404427 </i>
    <i name="e_0_energy">    -11.30688219 </i>
   </energy>
  </scstep>
  <scstep>
   <time name="dav">    0.50    0.50</time>
   <time name="total">    1.53    1.53</time>
   <energy>
    <i name="e_fr_energy">    -11.42008801 </i>
    <i name="e_wo_entrp">    -11.19441217 </i>
    <i name="e_0_energy">    -11.30725009 </i>
   </energy>
  </scstep>
  <scstep>
   <time name="dav">    0.49    0.49</time>
   <time name="total">    1.52    1.52</time>
   <energy>
    <i name="e_fr_energy">    -11.42032935 </i>
    <i name="e_wo_entrp">    -11.19465352 </i>
    <i name="e_0_energy">    -11.30749143 </i>
   </energy>
  </scstep>
  <scstep>
   <time name="dav">    0.50    0.50</time>
   <time name="total">    1.53    1.53</time>
   <energy>
    <i name="e_fr_energy">    -11.42041418 </i>
    <i name="e_wo_entrp">    -11.19473835 </i>
    <i name="e_0_energy">    -11.30757627 </i>
   </energy>
  </scstep>
  <scstep>
   <time name="dav">    0.49    0.49</time>
   <time name="total">    1.52    1.52</time>
   <energy>
    <i name="e_fr_energy">    -11.42050824 </i>
    <i name="e_wo_entrp">    -11.19483240 </i>
    <i name="e_0_energy">    -11.30767032 </i>
   </energy>
  </scstep>
  <scstep>
   <time name="dav">    0.49    0.49</time>
   <time name="total">    1.51    1.51</time>
   <energy>
    <i name="e_fr_energy">    -11.42060714 </i>
    <i name="e_wo_entrp">    -11.19493131 </i>
    <i name="e_0_energy">    -11.30776922 </i>
   </energy>
  </scstep>
  <scstep>
   <time name="dav">    0.49    0.49</time>
   <time name="total">    1.52    1.52</time>
   <energy>
    <i name="e_fr_energy">    -11.42067651 </i>
    <i name="e_wo_entrp">    -11.19500068 </i>
    <i name="e_0_energy">    -11.30783860 </i>
   </energy>
  </scstep>
  <scstep>
   <time name="dav">    0.50    0.50</time>
   <time name="total">    1.52    1.52</time>
   <energy>
    <i name="e_fr_energy">    -11.42073369 </i>
    <i name="e_wo_entrp">    -11.19505786 </i>
    <i name="e_0_energy">    -11.30789577 </i>
   </energy>
  </scstep>
  <scstep>
   <time name="dav">    0.38    0.38</time>
   <time name="total">    1.41    1.41</time>
   <energy>
    <i name="e_fr_energy">    -11.42075228 </i>
    <i name="e_wo_entrp">    -11.19507644 </i>
    <i name="e_0_energy">    -11.30791436 </i>
   </energy>
  </scstep>
  <scstep>
   <time name="dav">    0.44    0.44</time>
   <time name="total">    1.47    1.47</time>
   <energy>
    <i name="e_fr_energy">    -11.42075830 </i>
    <i name="e_wo_entrp">    -11.19508247 </i>
    <i name="e_0_energy">    -11.30792039 </i>
   </energy>
  </scstep>
  <scstep>
   <time name="dav">    0.38    0.38</time>
   <time name="total">    1.42    1.42</time>
   <energy>
    <i name="e_fr_energy">    -11.42076127 </i>
    <i name="e_wo_entrp">    -11.19508543 </i>
    <i name="e_0_energy">    -11.30792335 </i>
   </energy>
  </scstep>
  <scstep>
   <time name="dav">    0.50    0.51</time>
   <time name="total">    1.29    1.31</time>
   <energy>
    <i name="alphaZ">      0.04558910 </i>
    <i name="ewald">     38.78737864 </i>
    <i name="hartreedc">   -100.98831909 </i>
    <i name="XCdc">     15.84023347 </i>
    <i name="pawpsdc">     20.86557021 </i>
    <i name="pawaedc">    -20.92495923 </i>
    <i name="eentropy">     -0.22567583 </i>
    <i name="bandstr">    -64.38678217 </i>
    <i name="atom">     99.56620307 </i>
    <i name="e_fr_energy">    -11.42076184 </i>
    <i name="e_wo_entrp">    -11.19508600 </i>
    <i name="e_0_energy">    -11.30792392 </i>
   </energy>
  </scstep>
  <structure>
   <crystal>
    <varray name="basis" >
     <v>      15.00000000       0.00000000       0.00000000 </v>
     <v>       0.00000000      15.00000000       0.00000000 </v>
     <v>       0.00000000       0.00000000      15.20000000 </v>
    </varray>
    <i name="volume">   3420.00000000 </i>
    <varray name="rec_basis" >
     <v>       0.06666667      -0.00000000       0.00000000 </v>
     <v>       0.00000000       0.06666667       0.00000000 </v>
     <v>      -0.00000000      -0.00000000       0.06578947 </v>
    </varray>
   </crystal>
   <varray name="positions" >
    <v>       0.00000000       0.00000000       0.00000000 </v>
    <v>       0.00000000       0.00000000       0.12500000 </v>
    <v>       0.00000000       0.00000000       0.25000000 </v>
    <v>       0.00000000       0.00000000       0.37500000 </v>
    <v>       0.00000000       0.00000000       0.50000000 </v>
    <v>       0.00000000       0.00000000       0.62500000 </v>
    <v>       0.00000000       0.00000000       0.75000000 </v>
    <v>       0.00000000       0.00000000       0.87500000 </v>
   </varray>
  </structure>
  <varray name="forces" >
   <v>       0.00000000      -0.00000000       0.00000000 </v>
   <v>      -0.00000000      -0.00000000      -0.00000000 </v>
   <v>       0.00000000       0.00000000      -0.00000000 </v>
   <v>       0.00000000       0.00000000      -0.00000000 </v>
   <v>      -0.00000000       0.00000000      -0.00000000 </v>
   <v>       0.00000000       0.00000000       0.00000000 </v>
   <v>      -0.00000000       0.00000000       0.00000000 </v>
   <v>      -0.00000000      -0.00000000       0.00000000 </v>
  </varray>
  <varray name="stress" >
   <v>      -0.40915467      -0.00000000      -0.00000000 </v>
   <v>      -0.00000000      -0.40915467      -0.00000000 </v>
   <v>      -0.00000000      -0.00000000     -10.93704732 </v>
  </varray>
  <energy>
   <i name="e_fr_energy">    -11.42076184 </i>
   <i name="e_wo_entrp">    -11.30792392 </i>
   <i name="e_0_energy">     -0.22567583 </i>
  </energy>
  <time name="totalsc">   26.97   27.01</time>
  <eigenvalues>
   <array>
    <dimension dim="1">band</dimension>
    <dimension dim="2">kpoint</dimension>
    <dimension dim="3">spin</dimension>
    <field>eigene</field>
    <field>occ</field>
    <set>
     <set comment="spin 1">
      <set comment="kpoint 1">
       <r>   -8.9100    1.0000 </r>
       <r>   -8.3271    1.0000 </r>
       <r>   -8.3271    1.0000 </r>
       <r>   -6.6291    0.5000 </r>
       <r>   -6.6291    0.5000 </r>
       <r>   -4.1108    0.0000 </r>
       <r>   -4.1108    0.0000 </r>
       <r>   -2.3820    0.0000 </r>
       <r>   -0.1389    0.0000 </r>
       <r>   -0.1389    0.0000 </r>
       <r>   -0.1163    0.0000 </r>
       <r>    0.5315    0.0000 </r>
      </set>
     </set>
     <set comment="spin 2">
      <set comment="kpoint 1">
       <r>   -8.9100    1.0000 </r>
       <r>   -8.3271    1.0000 </r>
       <r>   -8.3271    1.0000 </r>
       <r>   -6.6291    0.5000 </r>
       <r>   -6.6291    0.5000 </r>
       <r>   -4.1108    0.0000 </r>
       <r>   -4.1108    0.0000 </r>
       <r>   -2.3820    0.0000 </r>
       <r>   -0.1389    0.0000 </r>
       <r>   -0.1389    0.0000 </r>
       <r>   -0.1157    0.0000 </r>
       <r>    0.5321    0.0000 </r>
      </set>
     </set>
    </set>
   </array>
  </eigenvalues>
  <separator name="orbital magnetization" >
   <v name="MAGDIPOLOUT">      0.00000000      0.00000000      0.00000000</v>
  </separator>
  <dos>
   <i name="efermi">     -6.62911233 </i>
   <total>
    <array>
     <dimension dim="1">gridpoints</dimension>
     <dimension dim="2">spin</dimension>
     <field>energy</field>
     <field>total</field>
     <field>integrated</field>
     <set>
      <set comment="spin 1">
       <r>   -10.9100     0.0000     0.0000 </r>
       <r>   -10.8652     0.0000     0.0000 </r>
       <r>   -10.8204     0.0000     0.0000 </r>
       <r>   -10.7756     0.0000     0.0000 </r>
       <r>   -10.7308     0.0000     0.0000 </r>
       <r>   -10.6860     0.0000     0.0000 </r>
       <r>   -10.6412     0.0000     0.0000 </r>
       <r>   -10.5964     0.0000     0.0000 </r>
       <r>   -10.5516     0.0000     0.0000 </r>
       <r>   -10.5068     0.0000     0.0000 </r>
       <r>   -10.4620     0.0000     0.0000 </r>
       <r>   -10.4172     0.0000     0.0000 </r>
       <r>   -10.3724     0.0000     0.0000 </r>
       <r>   -10.3275     0.0000     0.0000 </r>
       <r>   -10.2827     0.0000     0.0000 </r>
       <r>   -10.2379     0.0000     0.0000 </r>
       <r>   -10.1931     0.0000     0.0000 </r>
       <r>   -10.1483     0.0000     0.0000 </r>
       <r>   -10.1035     0.0000     0.0000 </r>
       <r>   -10.0587     0.0000     0.0000 </r>
       <r>   -10.0139     0.0000     0.0000 </r>
       <r>    -9.9691     0.0000     0.0000 </r>
       <r>    -9.9243     0.0000     0.0000 </r>
       <r>    -9.8795     0.0000     0.0000 </r>
       <r>    -9.8347     0.0000     0.0000 </r>
       <r>    -9.7899     0.0000     0.0000 </r>
       <r>    -9.7451     0.0000     0.0000 </r>
       <r>    -9.7002     0.0000     0.0000 </r>
       <r>    -9.6554     0.0000     0.0000 </r>
       <r>    -9.6106     0.0000     0.0000 </r>
       <r>    -9.5658     0.0001     0.0000 </r>
       <r>    -9.5210     0.0003     0.0000 </r>
       <r>    -9.4762     0.0010     0.0001 </r>
       <r>    -9.4314     0.0037     0.0002 </r>
       <r>    -9.3866     0.0117     0.0008 </r>
       <r>    -9.3418     0.0338     0.0023 </r>
       <r>    -9.2970     0.0882     0.0062 </r>
       <r>    -9.2522     0.2083     0.0156 </r>
       <r>    -9.2074     0.4456     0.0355 </r>
       <r>    -9.1626     0.8626     0.0742 </r>
       <r>    -9.1177     1.5117     0.1419 </r>
       <r>    -9.0729     2.3982     0.2494 </r>
       <r>    -9.0281     3.4441     0.4037 </r>
       <r>    -8.9833     4.4774     0.6043 </r>
       <r>    -8.9385     5.2696     0.8404 </r>
       <r>    -8.8937     5.6153     1.0920 </r>
       <r>    -8.8489     5.4206     1.3349 </r>
       <r>    -8.8041     4.7490     1.5477 </r>
       <r>    -8.7593     3.8017     1.7180 </r>
       <r>    -8.7145     2.8467     1.8456 </r>
       <r>    -8.6697     2.1438     1.9416 </r>
       <r>    -8.6249     1.8995     2.0268 </r>
       <r>    -8.5801     2.2535     2.1277 </r>
       <r>    -8.5353     3.2674     2.2741 </r>
       <r>    -8.4904     4.8902     2.4932 </r>
       <r>    -8.4456     6.9120     2.8030 </r>
       <r>    -8.4008     8.9523     3.2041 </r>
       <r>    -8.3560    10.5319     3.6760 </r>
       <r>    -8.3112    11.2265     4.1790 </r>
       <r>    -8.2664    10.8358     4.6645 </r>
       <r>    -8.2216     9.4683     5.0888 </r>
       <r>    -8.1768     7.4897     5.4244 </r>
       <r>    -8.1320     5.3631     5.6647 </r>
       <r>    -8.0872     3.4765     5.8205 </r>
       <r>    -8.0424     2.0400     5.9119 </r>
       <r>    -7.9976     1.0836     5.9604 </r>
       <r>    -7.9528     0.5210     5.9838 </r>
       <r>    -7.9080     0.2268     5.9939 </r>
       <r>    -7.8631     0.0894     5.9979 </r>
       <r>    -7.8183     0.0319     5.9994 </r>
       <r>    -7.7735     0.0103     5.9998 </r>
       <r>    -7.7287     0.0030     6.0000 </r>
       <r>    -7.6839     0.0008     6.0000 </r>
       <r>    -7.6391     0.0002     6.0000 </r>
       <r>    -7.5943     0.0000     6.0000 </r>
       <r>    -7.5495     0.0000     6.0000 </r>
       <r>    -7.5047     0.0000     6.0000 </r>
       <r>    -7.4599     0.0000     6.0000 </r>
       <r>    -7.4151     0.0000     6.0000 </r>
       <r>    -7.3703     0.0000     6.0000 </r>
       <r>    -7.3255     0.0000     6.0000 </r>
       <r>    -7.2807     0.0001     6.0000 </r>
       <r>    -7.2358     0.0006     6.0000 </r>
       <r>    -7.1910     0.0024     6.0001 </r>
       <r>    -7.1462     0.0082     6.0005 </r>
       <r>    -7.1014     0.0260     6.0017 </r>
       <r>    -7.0566     0.0743     6.0050 </r>
       <r>    -7.0118     0.1921     6.0136 </r>
       <r>    -6.9670     0.4497     6.0338 </r>
       <r>    -6.9222     0.9527     6.0765 </r>
       <r>    -6.8774     1.8271     6.1583 </r>
       <r>    -6.8326     3.1719     6.3004 </r>
       <r>    -6.7878     4.9848     6.5238 </r>
       <r>    -6.7430     7.0915     6.8416 </r>
       <r>    -6.6982     9.1326     7.2508 </r>
       <r>    -6.6534    10.6467     7.7278 </r>
       <r>    -6.6085    11.2358     8.2313 </r>
       <r>    -6.5637    10.7340     8.7122 </r>
       <r>    -6.5189     9.2829     9.1282 </r>
       <r>    -6.4741     7.2673     9.4538 </r>
       <r>    -6.4293     5.1502     9.6846 </r>
       <r>    -6.3845     3.3040     9.8326 </r>
       <r>    -6.3397     1.9188     9.9186 </r>
       <r>    -6.2949     1.0087     9.9638 </r>
       <r>    -6.2501     0.4800     9.9853 </r>
       <r>    -6.2053     0.2068     9.9945 </r>
       <r>    -6.1605     0.0806     9.9982 </r>
       <r>    -6.1157     0.0285     9.9994 </r>
       <r>    -6.0709     0.0091     9.9998 </r>
       <r>    -6.0261     0.0026    10.0000 </r>
       <r>    -5.9812     0.0007    10.0000 </r>
       <r>    -5.9364     0.0002    10.0000 </r>
       <r>    -5.8916     0.0000    10.0000 </r>
       <r>    -5.8468     0.0000    10.0000 </r>
       <r>    -5.8020     0.0000    10.0000 </r>
       <r>    -5.7572     0.0000    10.0000 </r>
       <r>    -5.7124     0.0000    10.0000 </r>
       <r>    -5.6676     0.0000    10.0000 </r>
       <r>    -5.6228     0.0000    10.0000 </r>
       <r>    -5.5780     0.0000    10.0000 </r>
       <r>    -5.5332     0.0000    10.0000 </r>
       <r>    -5.4884     0.0000    10.0000 </r>
       <r>    -5.4436     0.0000    10.0000 </r>
       <r>    -5.3987     0.0000    10.0000 </r>
       <r>    -5.3539     0.0000    10.0000 </r>
       <r>    -5.3091     0.0000    10.0000 </r>
       <r>    -5.2643     0.0000    10.0000 </r>
       <r>    -5.2195     0.0000    10.0000 </r>
       <r>    -5.1747     0.0000    10.0000 </r>
       <r>    -5.1299     0.0000    10.0000 </r>
       <r>    -5.0851     0.0000    10.0000 </r>
       <r>    -5.0403     0.0000    10.0000 </r>
       <r>    -4.9955     0.0000    10.0000 </r>
       <r>    -4.9507     0.0000    10.0000 </r>
       <r>    -4.9059     0.0000    10.0000 </r>
       <r>    -4.8611     0.0000    10.0000 </r>
       <r>    -4.8163     0.0000    10.0000 </r>
       <r>    -4.7714     0.0001    10.0000 </r>
       <r>    -4.7266     0.0005    10.0000 </r>
       <r>    -4.6818     0.0018    10.0001 </r>
       <r>    -4.6370     0.0065    10.0004 </r>
       <r>    -4.5922     0.0208    10.0013 </r>
       <r>    -4.5474     0.0606    10.0040 </r>
       <r>    -4.5026     0.1598    10.0112 </r>
       <r>    -4.4578     0.3816    10.0283 </r>
       <r>    -4.4130     0.8249    10.0653 </r>
       <r>    -4.3682     1.6142    10.1376 </r>
       <r>    -4.3234     2.8595    10.2657 </r>
       <r>    -4.2786     4.5854    10.4712 </r>
       <r>    -4.2338     6.6561    10.7694 </r>
       <r>    -4.1890     8.7465    11.1613 </r>
       <r>    -4.1441    10.4043    11.6275 </r>
       <r>    -4.0993    11.2036    12.1295 </r>
       <r>    -4.0545    10.9212    12.6189 </r>
       <r>    -4.0097     9.6372    13.0507 </r>
       <r>    -3.9649     7.6983    13.3956 </r>
       <r>    -3.9201     5.5668    13.6451 </r>
       <r>    -3.8753     3.6441    13.8083 </r>
       <r>    -3.8305     2.1594    13.9051 </r>
       <r>    -3.7857     1.1583    13.9570 </r>
       <r>    -3.7409     0.5624    13.9822 </r>
       <r>    -3.6961     0.2472    13.9933 </r>
       <r>    -3.6513     0.0984    13.9977 </r>
       <r>    -3.6065     0.0354    13.9993 </r>
       <r>    -3.5617     0.0116    13.9998 </r>
       <r>    -3.5168     0.0034    13.9999 </r>
       <r>    -3.4720     0.0009    14.0000 </r>
       <r>    -3.4272     0.0002    14.0000 </r>
       <r>    -3.3824     0.0000    14.0000 </r>
       <r>    -3.3376     0.0000    14.0000 </r>
       <r>    -3.2928     0.0000    14.0000 </r>
       <r>    -3.2480     0.0000    14.0000 </r>
       <r>    -3.2032     0.0000    14.0000 </r>
       <r>    -3.1584     0.0000    14.0000 </r>
       <r>    -3.1136     0.0000    14.0000 </r>
       <r>    -3.0688     0.0000    14.0000 </r>
       <r>    -3.0240     0.0001    14.0000 </r>
       <r>    -2.9792     0.0004    14.0000 </r>
       <r>    -2.9344     0.0016    14.0001 </r>
       <r>    -2.8895     0.0053    14.0003 </r>
       <r>    -2.8447     0.0164    14.0011 </r>
       <r>    -2.7999     0.0459    14.0031 </r>
       <r>    -2.7551     0.1162    14.0083 </r>
       <r>    -2.7103     0.2663    14.0203 </r>
       <r>    -2.6655     0.5523    14.0450 </r>
       <r>    -2.6207     1.0368    14.0915 </r>
       <r>    -2.5759     1.7620    14.1704 </r>
       <r>    -2.5311     2.7106    14.2919 </r>
       <r>    -2.4863     3.7748    14.4610 </r>
       <r>    -2.4415     4.7586    14.6742 </r>
       <r>    -2.3967     5.4305    14.9176 </r>
       <r>    -2.3519     5.6100    15.1689 </r>
       <r>    -2.3071     5.2463    15.4040 </r>
       <r>    -2.2622     4.4413    15.6030 </r>
       <r>    -2.2174     3.4036    15.7555 </r>
       <r>    -2.1726     2.3612    15.8613 </r>
       <r>    -2.1278     1.4828    15.9277 </r>
       <r>    -2.0830     0.8429    15.9655 </r>
       <r>    -2.0382     0.4338    15.9849 </r>
       <r>    -1.9934     0.2021    15.9940 </r>
       <r>    -1.9486     0.0852    15.9978 </r>
       <r>    -1.9038     0.0325    15.9993 </r>
       <r>    -1.8590     0.0112    15.9998 </r>
       <r>    -1.8142     0.0035    15.9999 </r>
       <r>    -1.7694     0.0010    16.0000 </r>
       <r>    -1.7246     0.0003    16.0000 </r>
       <r>    -1.6797     0.0001    16.0000 </r>
       <r>    -1.6349     0.0000    16.0000 </r>
       <r>    -1.5901     0.0000    16.0000 </r>
       <r>    -1.5453     0.0000    16.0000 </r>
       <r>    -1.5005     0.0000    16.0000 </r>
       <r>    -1.4557     0.0000    16.0000 </r>
       <r>    -1.4109     0.0000    16.0000 </r>
       <r>    -1.3661     0.0000    16.0000 </r>
       <r>    -1.3213     0.0000    16.0000 </r>
       <r>    -1.2765     0.0000    16.0000 </r>
       <r>    -1.2317     0.0000    16.0000 </r>
       <r>    -1.1869     0.0000    16.0000 </r>
       <r>    -1.1421     0.0000    16.0000 </r>
       <r>    -1.0973     0.0000    16.0000 </r>
       <r>    -1.0524     0.0000    16.0000 </r>
       <r>    -1.0076     0.0000    16.0000 </r>
       <r>    -0.9628     0.0000    16.0000 </r>
       <r>    -0.9180     0.0000    16.0000 </r>
       <r>    -0.8732     0.0000    16.0000 </r>
       <r>    -0.8284     0.0000    16.0000 </r>
       <r>    -0.7836     0.0002    16.0000 </r>
       <r>    -0.7388     0.0009    16.0001 </r>
       <r>    -0.6940     0.0036    16.0002 </r>
       <r>    -0.6492     0.0126    16.0008 </r>
       <r>    -0.6044     0.0395    16.0026 </r>
       <r>    -0.5596     0.1124    16.0076 </r>
       <r>    -0.5148     0.2897    16.0206 </r>
       <r>    -0.4700     0.6761    16.0509 </r>
       <r>    -0.4251     1.4289    16.1149 </r>
       <r>    -0.3803     2.7350    16.2374 </r>
       <r>    -0.3355     4.7413    16.4499 </r>
       <r>    -0.2907     7.4443    16.7834 </r>
       <r>    -0.2459    10.5860    17.2578 </r>
       <r>    -0.2011    13.6345    17.8687 </r>
       <r>    -0.1563    15.9054    18.5814 </r>
       <r>    -0.1115    16.8056    19.3344 </r>
       <r>    -0.0667    16.0834    20.0550 </r>
       <r>    -0.0219    13.9426    20.6798 </r>
       <r>     0.0229    10.9508    21.1704 </r>
       <r>     0.0677     7.8000    21.5199 </r>
       <r>     0.1125     5.0589    21.7466 </r>
       <r>     0.1573     3.0393    21.8828 </r>
       <r>     0.2022     1.8075    21.9638 </r>
       <r>     0.2470     1.2835    22.0213 </r>
       <r>     0.2918     1.3436    22.0815 </r>
       <r>     0.3366     1.8681    22.1652 </r>
       <r>     0.3814     2.7311    22.2876 </r>
       <r>     0.4262     3.7641    22.4562 </r>
       <r>     0.4710     4.7423    22.6687 </r>
       <r>     0.5158     5.4209    22.9116 </r>
       <r>     0.5606     5.6124    23.1631 </r>
       <r>     0.6054     5.2607    23.3988 </r>
       <r>     0.6502     4.4639    23.5988 </r>
       <r>     0.6950     3.4290    23.7525 </r>
       <r>     0.7398     2.3844    23.8593 </r>
       <r>     0.7846     1.5009    23.9265 </r>
       <r>     0.8295     0.8552    23.9649 </r>
       <r>     0.8743     0.4411    23.9846 </r>
       <r>     0.9191     0.2060    23.9939 </r>
       <r>     0.9639     0.0871    23.9978 </r>
       <r>     1.0087     0.0333    23.9993 </r>
       <r>     1.0535     0.0115    23.9998 </r>
       <r>     1.0983     0.0036    23.9999 </r>
       <r>     1.1431     0.0010    24.0000 </r>
       <r>     1.1879     0.0003    24.0000 </r>
       <r>     1.2327     0.0001    24.0000 </r>
       <r>     1.2775     0.0000    24.0000 </r>
       <r>     1.3223     0.0000    24.0000 </r>
       <r>     1.3671     0.0000    24.0000 </r>
       <r>     1.4119     0.0000    24.0000 </r>
       <r>     1.4568     0.0000    24.0000 </r>
       <r>     1.5016     0.0000    24.0000 </r>
       <r>     1.5464     0.0000    24.0000 </r>
       <r>     1.5912     0.0000    24.0000 </r>
       <r>     1.6360     0.0000    24.0000 </r>
       <r>     1.6808     0.0000    24.0000 </r>
       <r>     1.7256     0.0000    24.0000 </r>
       <r>     1.7704     0.0000    24.0000 </r>
       <r>     1.8152     0.0000    24.0000 </r>
       <r>     1.8600     0.0000    24.0000 </r>
       <r>     1.9048     0.0000    24.0000 </r>
       <r>     1.9496     0.0000    24.0000 </r>
       <r>     1.9944     0.0000    24.0000 </r>
       <r>     2.0393     0.0000    24.0000 </r>
       <r>     2.0841     0.0000    24.0000 </r>
       <r>     2.1289     0.0000    24.0000 </r>
       <r>     2.1737     0.0000    24.0000 </r>
       <r>     2.2185     0.0000    24.0000 </r>
       <r>     2.2633     0.0000    24.0000 </r>
       <r>     2.3081     0.0000    24.0000 </r>
       <r>     2.3529     0.0000    24.0000 </r>
       <r>     2.3977     0.0000    24.0000 </r>
       <r>     2.4425     0.0000    24.0000 </r>
       <r>     2.4873     0.0000    24.0000 </r>
       <r>     2.5321     0.0000    24.0000 </r>
      </set>
      <set comment="spin 2">
       <r>   -10.9100     0.0000     0.0000 </r>
       <r>   -10.8652     0.0000     0.0000 </r>
       <r>   -10.8204     0.0000     0.0000 </r>
       <r>   -10.7756     0.0000     0.0000 </r>
       <r>   -10.7308     0.0000     0.0000 </r>
       <r>   -10.6860     0.0000     0.0000 </r>
       <r>   -10.6412     0.0000     0.0000 </r>
       <r>   -10.5964     0.0000     0.0000 </r>
       <r>   -10.5516     0.0000     0.0000 </r>
       <r>   -10.5068     0.0000     0.0000 </r>
       <r>   -10.4620     0.0000     0.0000 </r>
       <r>   -10.4172     0.0000     0.0000 </r>
       <r>   -10.3724     0.0000     0.0000 </r>
       <r>   -10.3275     0.0000     0.0000 </r>
       <r>   -10.2827     0.0000     0.0000 </r>
       <r>   -10.2379     0.0000     0.0000 </r>
       <r>   -10.1931     0.0000     0.0000 </r>
       <r>   -10.1483     0.0000     0.0000 </r>
       <r>   -10.1035     0.0000     0.0000 </r>
       <r>   -10.0587     0.0000     0.0000 </r>
       <r>   -10.0139     0.0000     0.0000 </r>
       <r>    -9.9691     0.0000     0.0000 </r>
       <r>    -9.9243     0.0000     0.0000 </r>
       <r>    -9.8795     0.0000     0.0000 </r>
       <r>    -9.8347     0.0000     0.0000 </r>
       <r>    -9.7899     0.0000     0.0000 </r>
       <r>    -9.7451     0.0000     0.0000 </r>
       <r>    -9.7002     0.0000     0.0000 </r>
       <r>    -9.6554     0.0000     0.0000 </r>
       <r>    -9.6106     0.0000     0.0000 </r>
       <r>    -9.5658     0.0001     0.0000 </r>
       <r>    -9.5210     0.0003     0.0000 </r>
       <r>    -9.4762     0.0010     0.0001 </r>
       <r>    -9.4314     0.0037     0.0002 </r>
       <r>    -9.3866     0.0117     0.0008 </r>
       <r>    -9.3418     0.0338     0.0023 </r>
       <r>    -9.2970     0.0882     0.0062 </r>
       <r>    -9.2522     0.2083     0.0156 </r>
       <r>    -9.2074     0.4456     0.0355 </r>
       <r>    -9.1626     0.8626     0.0742 </r>
       <r>    -9.1177     1.5117     0.1419 </r>
       <r>    -9.0729     2.3982     0.2494 </r>
       <r>    -9.0281     3.4441     0.4037 </r>
       <r>    -8.9833     4.4774     0.6043 </r>
       <r>    -8.9385     5.2696     0.8404 </r>
       <r>    -8.8937     5.6153     1.0920 </r>
       <r>    -8.8489     5.4206     1.3349 </r>
       <r>    -8.8041     4.7490     1.5477 </r>
       <r>    -8.7593     3.8017     1.7180 </r>
       <r>    -8.7145     2.8467     1.8456 </r>
       <r>    -8.6697     2.1438     1.9416 </r>
       <r>    -8.6249     1.8995     2.0268 </r>
       <r>    -8.5801     2.2535     2.1277 </r>
       <r>    -8.5353     3.2674     2.2741 </r>
       <r>    -8.4904     4.8902     2.4933 </r>
       <r>    -8.4456     6.9120     2.8030 </r>
       <r>    -8.4008     8.9524     3.2041 </r>
       <r>    -8.3560    10.5319     3.6760 </r>
       <r>    -8.3112    11.2265     4.1790 </r>
       <r>    -8.2664    10.8358     4.6645 </r>
       <r>    -8.2216     9.4683     5.0888 </r>
       <r>    -8.1768     7.4896     5.4244 </r>
       <r>    -8.1320     5.3631     5.6647 </r>
       <r>    -8.0872     3.4765     5.8205 </r>
       <r>    -8.0424     2.0400     5.9119 </r>
       <r>    -7.9976     1.0836     5.9604 </r>
       <r>    -7.9528     0.5210     5.9838 </r>
       <r>    -7.9080     0.2268     5.9939 </r>
       <r>    -7.8631     0.0894     5.9979 </r>
       <r>    -7.8183     0.0319     5.9994 </r>
       <r>    -7.7735     0.0103     5.9998 </r>
       <r>    -7.7287     0.0030     6.0000 </r>
       <r>    -7.6839     0.0008     6.0000 </r>
       <r>    -7.6391     0.0002     6.0000 </r>
       <r>    -7.5943     0.0000     6.0000 </r>
       <r>    -7.5495     0.0000     6.0000 </r>
       <r>    -7.5047     0.0000     6.0000 </r>
       <r>    -7.4599     0.0000     6.0000 </r>
       <r>    -7.4151     0.0000     6.0000 </r>
       <r>    -7.3703     0.0000     6.0000 </r>
       <r>    -7.3255     0.0000     6.0000 </r>
       <r>    -7.2807     0.0001     6.0000 </r>
       <r>    -7.2358     0.0006     6.0000 </r>
       <r>    -7.1910     0.0024     6.0001 </r>
       <r>    -7.1462     0.0082     6.0005 </r>
       <r>    -7.1014     0.0260     6.0017 </r>
       <r>    -7.0566     0.0743     6.0050 </r>
       <r>    -7.0118     0.1921     6.0136 </r>
       <r>    -6.9670     0.4497     6.0338 </r>
       <r>    -6.9222     0.9527     6.0765 </r>
       <r>    -6.8774     1.8271     6.1583 </r>
       <r>    -6.8326     3.1720     6.3004 </r>
       <r>    -6.7878     4.9848     6.5238 </r>
       <r>    -6.7430     7.0916     6.8416 </r>
       <r>    -6.6982     9.1326     7.2508 </r>
       <r>    -6.6534    10.6468     7.7278 </r>
       <r>    -6.6085    11.2358     8.2313 </r>
       <r>    -6.5637    10.7340     8.7122 </r>
       <r>    -6.5189     9.2829     9.1282 </r>
       <r>    -6.4741     7.2673     9.4538 </r>
       <r>    -6.4293     5.1502     9.6846 </r>
       <r>    -6.3845     3.3040     9.8326 </r>
       <r>    -6.3397     1.9188     9.9186 </r>
       <r>    -6.2949     1.0087     9.9638 </r>
       <r>    -6.2501     0.4800     9.9853 </r>
       <r>    -6.2053     0.2068     9.9945 </r>
       <r>    -6.1605     0.0806     9.9982 </r>
       <r>    -6.1157     0.0285     9.9994 </r>
       <r>    -6.0709     0.0091     9.9998 </r>
       <r>    -6.0261     0.0026    10.0000 </r>
       <r>    -5.9812     0.0007    10.0000 </r>
       <r>    -5.9364     0.0002    10.0000 </r>
       <r>    -5.8916     0.0000    10.0000 </r>
       <r>    -5.8468     0.0000    10.0000 </r>
       <r>    -5.8020     0.0000    10.0000 </r>
       <r>    -5.7572     0.0000    10.0000 </r>
       <r>    -5.7124     0.0000    10.0000 </r>
       <r>    -5.6676     0.0000    10.0000 </r>
       <r>    -5.6228     0.0000    10.0000 </r>
       <r>    -5.5780     0.0000    10.0000 </r>
       <r>    -5.5332     0.0000    10.0000 </r>
       <r>    -5.4884     0.0000    10.0000 </r>
       <r>    -5.4436     0.0000    10.0000 </r>
       <r>    -5.3987     0.0000    10.0000 </r>
       <r>    -5.3539     0.0000    10.0000 </r>
       <r>    -5.3091     0.0000    10.0000 </r>
       <r>    -5.2643     0.0000    10.0000 </r>
       <r>    -5.2195     0.0000    10.0000 </r>
       <r>    -5.1747     0.0000    10.0000 </r>
       <r>    -5.1299     0.0000    10.0000 </r>
       <r>    -5.0851     0.0000    10.0000 </r>
       <r>    -5.0403     0.0000    10.0000 </r>
       <r>    -4.9955     0.0000    10.0000 </r>
       <r>    -4.9507     0.0000    10.0000 </r>
       <r>    -4.9059     0.0000    10.0000 </r>
       <r>    -4.8611     0.0000    10.0000 </r>
       <r>    -4.8163     0.0000    10.0000 </r>
       <r>    -4.7714     0.0001    10.0000 </r>
       <r>    -4.7266     0.0005    10.0000 </r>
       <r>    -4.6818     0.0018    10.0001 </r>
       <r>    -4.6370     0.0065    10.0004 </r>
       <r>    -4.5922     0.0208    10.0013 </r>
       <r>    -4.5474     0.0606    10.0040 </r>
       <r>    -4.5026     0.1598    10.0112 </r>
       <r>    -4.4578     0.3816    10.0283 </r>
       <r>    -4.4130     0.8249    10.0653 </r>
       <r>    -4.3682     1.6143    10.1376 </r>
       <r>    -4.3234     2.8595    10.2657 </r>
       <r>    -4.2786     4.5854    10.4712 </r>
       <r>    -4.2338     6.6562    10.7694 </r>
       <r>    -4.1890     8.7465    11.1613 </r>
       <r>    -4.1441    10.4043    11.6275 </r>
       <r>    -4.0993    11.2037    12.1295 </r>
       <r>    -4.0545    10.9212    12.6189 </r>
       <r>    -4.0097     9.6372    13.0507 </r>
       <r>    -3.9649     7.6983    13.3956 </r>
       <r>    -3.9201     5.5668    13.6451 </r>
       <r>    -3.8753     3.6440    13.8083 </r>
       <r>    -3.8305     2.1593    13.9051 </r>
       <r>    -3.7857     1.1583    13.9570 </r>
       <r>    -3.7409     0.5624    13.9822 </r>
       <r>    -3.6961     0.2472    13.9933 </r>
       <r>    -3.6513     0.0984    13.9977 </r>
       <r>    -3.6065     0.0354    13.9993 </r>
       <r>    -3.5617     0.0116    13.9998 </r>
       <r>    -3.5168     0.0034    13.9999 </r>
       <r>    -3.4720     0.0009    14.0000 </r>
       <r>    -3.4272     0.0002    14.0000 </r>
       <r>    -3.3824     0.0000    14.0000 </r>
       <r>    -3.3376     0.0000    14.0000 </r>
       <r>    -3.2928     0.0000    14.0000 </r>
       <r>    -3.2480     0.0000    14.0000 </r>
       <r>    -3.2032     0.0000    14.0000 </r>
       <r>    -3.1584     0.0000    14.0000 </r>
       <r>    -3.1136     0.0000    14.0000 </r>
       <r>    -3.0688     0.0000    14.0000 </r>
       <r>    -3.0240     0.0001    14.0000 </r>
       <r>    -2.9792     0.0004    14.0000 </r>
       <r>    -2.9344     0.0016    14.0001 </r>
       <r>    -2.8895     0.0053    14.0003 </r>
       <r>    -2.8447     0.0164    14.0011 </r>
       <r>    -2.7999     0.0459    14.0031 </r>
       <r>    -2.7551     0.1162    14.0083 </r>
       <r>    -2.7103     0.2663    14.0203 </r>
       <r>    -2.6655     0.5523    14.0450 </r>
       <r>    -2.6207     1.0368    14.0915 </r>
       <r>    -2.5759     1.7620    14.1704 </r>
       <r>    -2.5311     2.7106    14.2919 </r>
       <r>    -2.4863     3.7748    14.4610 </r>
       <r>    -2.4415     4.7586    14.6742 </r>
       <r>    -2.3967     5.4305    14.9176 </r>
       <r>    -2.3519     5.6100    15.1689 </r>
       <r>    -2.3071     5.2463    15.4040 </r>
       <r>    -2.2622     4.4413    15.6030 </r>
       <r>    -2.2174     3.4036    15.7555 </r>
       <r>    -2.1726     2.3612    15.8613 </r>
       <r>    -2.1278     1.4828    15.9277 </r>
       <r>    -2.0830     0.8429    15.9655 </r>
       <r>    -2.0382     0.4338    15.9849 </r>
       <r>    -1.9934     0.2021    15.9940 </r>
       <r>    -1.9486     0.0852    15.9978 </r>
       <r>    -1.9038     0.0325    15.9993 </r>
       <r>    -1.8590     0.0112    15.9998 </r>
       <r>    -1.8142     0.0035    15.9999 </r>
       <r>    -1.7694     0.0010    16.0000 </r>
       <r>    -1.7246     0.0003    16.0000 </r>
       <r>    -1.6797     0.0001    16.0000 </r>
       <r>    -1.6349     0.0000    16.0000 </r>
       <r>    -1.5901     0.0000    16.0000 </r>
       <r>    -1.5453     0.0000    16.0000 </r>
       <r>    -1.5005     0.0000    16.0000 </r>
       <r>    -1.4557     0.0000    16.0000 </r>
       <r>    -1.4109     0.0000    16.0000 </r>
       <r>    -1.3661     0.0000    16.0000 </r>
       <r>    -1.3213     0.0000    16.0000 </r>
       <r>    -1.2765     0.0000    16.0000 </r>
       <r>    -1.2317     0.0000    16.0000 </r>
       <r>    -1.1869     0.0000    16.0000 </r>
       <r>    -1.1421     0.0000    16.0000 </r>
       <r>    -1.0973     0.0000    16.0000 </r>
       <r>    -1.0524     0.0000    16.0000 </r>
       <r>    -1.0076     0.0000    16.0000 </r>
       <r>    -0.9628     0.0000    16.0000 </r>
       <r>    -0.9180     0.0000    16.0000 </r>
       <r>    -0.8732     0.0000    16.0000 </r>
       <r>    -0.8284     0.0000    16.0000 </r>
       <r>    -0.7836     0.0002    16.0000 </r>
       <r>    -0.7388     0.0009    16.0001 </r>
       <r>    -0.6940     0.0036    16.0002 </r>
       <r>    -0.6492     0.0125    16.0008 </r>
       <r>    -0.6044     0.0394    16.0025 </r>
       <r>    -0.5596     0.1120    16.0076 </r>
       <r>    -0.5148     0.2888    16.0205 </r>
       <r>    -0.4700     0.6740    16.0507 </r>
       <r>    -0.4251     1.4249    16.1145 </r>
       <r>    -0.3803     2.7282    16.2368 </r>
       <r>    -0.3355     4.7309    16.4488 </r>
       <r>    -0.2907     7.4304    16.7817 </r>
       <r>    -0.2459    10.5702    17.2553 </r>
       <r>    -0.2011    13.6195    17.8656 </r>
       <r>    -0.1563    15.8947    18.5778 </r>
       <r>    -0.1115    16.8021    19.3306 </r>
       <r>    -0.0667    16.0882    20.0515 </r>
       <r>    -0.0219    13.9541    20.6767 </r>
       <r>     0.0229    10.9661    21.1681 </r>
       <r>     0.0677     7.8155    21.5183 </r>
       <r>     0.1125     5.0716    21.7455 </r>
       <r>     0.1573     3.0477    21.8821 </r>
       <r>     0.2022     1.8109    21.9632 </r>
       <r>     0.2470     1.2820    22.0207 </r>
       <r>     0.2918     1.3371    22.0806 </r>
       <r>     0.3366     1.8571    22.1638 </r>
       <r>     0.3814     2.7170    22.2855 </r>
       <r>     0.4262     3.7493    22.4535 </r>
       <r>     0.4710     4.7301    22.6655 </r>
       <r>     0.5158     5.4144    22.9081 </r>
       <r>     0.5606     5.6135    23.1596 </r>
       <r>     0.6054     5.2691    23.3957 </r>
       <r>     0.6502     4.4773    23.5963 </r>
       <r>     0.6950     3.4441    23.7506 </r>
       <r>     0.7398     2.3982    23.8581 </r>
       <r>     0.7846     1.5117    23.9258 </r>
       <r>     0.8295     0.8626    23.9645 </r>
       <r>     0.8743     0.4456    23.9844 </r>
       <r>     0.9191     0.2083    23.9938 </r>
       <r>     0.9639     0.0882    23.9977 </r>
       <r>     1.0087     0.0338    23.9992 </r>
       <r>     1.0535     0.0117    23.9998 </r>
       <r>     1.0983     0.0037    23.9999 </r>
       <r>     1.1431     0.0010    24.0000 </r>
       <r>     1.1879     0.0003    24.0000 </r>
       <r>     1.2327     0.0001    24.0000 </r>
       <r>     1.2775     0.0000    24.0000 </r>
       <r>     1.3223     0.0000    24.0000 </r>
       <r>     1.3671     0.0000    24.0000 </r>
       <r>     1.4119     0.0000    24.0000 </r>
       <r>     1.4568     0.0000    24.0000 </r>
       <r>     1.5016     0.0000    24.0000 </r>
       <r>     1.5464     0.0000    24.0000 </r>
       <r>     1.5912     0.0000    24.0000 </r>
       <r>     1.6360     0.0000    24.0000 </r>
       <r>     1.6808     0.0000    24.0000 </r>
       <r>     1.7256     0.0000    24.0000 </r>
       <r>     1.7704     0.0000    24.0000 </r>
       <r>     1.8152     0.0000    24.0000 </r>
       <r>     1.8600     0.0000    24.0000 </r>
       <r>     1.9048     0.0000    24.0000 </r>
       <r>     1.9496     0.0000    24.0000 </r>
       <r>     1.9944     0.0000    24.0000 </r>
       <r>     2.0393     0.0000    24.0000 </r>
       <r>     2.0841     0.0000    24.0000 </r>
       <r>     2.1289     0.0000    24.0000 </r>
       <r>     2.1737     0.0000    24.0000 </r>
       <r>     2.2185     0.0000    24.0000 </r>
       <r>     2.2633     0.0000    24.0000 </r>
       <r>     2.3081     0.0000    24.0000 </r>
       <r>     2.3529     0.0000    24.0000 </r>
       <r>     2.3977     0.0000    24.0000 </r>
       <r>     2.4425     0.0000    24.0000 </r>
       <r>     2.4873     0.0000    24.0000 </r>
       <r>     2.5321     0.0000    24.0000 </r>
      </set>
     </set>
    </array>
   </total>
  </dos>
 </calculation>
 <structure name="finalpos" >
  <crystal>
   <varray name="basis" >
    <v>      15.00000000       0.00000000       0.00000000 </v>
    <v>       0.00000000      15.00000000       0.00000000 </v>
    <v>       0.00000000       0.00000000      15.20000000 </v>
   </varray>
   <i name="volume">   3420.00000000 </i>
   <varray name="rec_basis" >
    <v>       0.06666667      -0.00000000       0.00000000 </v>
    <v>       0.00000000       0.06666667       0.00000000 </v>
    <v>      -0.00000000      -0.00000000       0.06578947 </v>
   </varray>
  </crystal>
  <varray name="positions" >
   <v>       0.00000000       0.00000000       0.00000000 </v>
   <v>       0.00000000       0.00000000       0.12500000 </v>
   <v>       0.00000000       0.00000000       0.25000000 </v>
   <v>       0.00000000       0.00000000       0.37500000 </v>
   <v>       0.00000000       0.00000000       0.50000000 </v>
   <v>       0.00000000       0.00000000       0.62500000 </v>
   <v>       0.00000000       0.00000000       0.75000000 </v>
   <v>       0.00000000       0.00000000       0.87500000 </v>
  </varray>
 </structure>
</modeling>
