   8   8   0   0
  0.3825000E+03  0.1500000E-08  0.1500000E-08  0.1360000E-08  0.5000000E-15
  1.000000000000000E-004
  CAR 
 unknown system                          
      2.59861965    -11.49001530  301     -6.51436377      1.00000000
    -11.490  0.0000E+00  0.0000E+00  0.0000E+00  0.0000E+00
    -11.443  0.0000E+00  0.0000E+00  0.0000E+00  0.0000E+00
    -11.396  0.0000E+00  0.0000E+00  0.0000E+00  0.0000E+00
    -11.349  0.0000E+00  0.0000E+00  0.0000E+00  0.0000E+00
    -11.302  0.0000E+00  0.0000E+00  0.0000E+00  0.0000E+00
    -11.255  0.0000E+00  0.0000E+00  0.0000E+00  0.0000E+00
    -11.208  0.0000E+00  0.0000E+00  0.0000E+00  0.0000E+00
    -11.161  0.0000E+00  0.0000E+00  0.0000E+00  0.0000E+00
    -11.114  0.0000E+00  0.0000E+00  0.0000E+00  0.0000E+00
    -11.067  0.0000E+00  0.0000E+00  0.0000E+00  0.0000E+00
    -11.020  0.0000E+00  0.0000E+00  0.0000E+00  0.0000E+00
    -10.973  0.0000E+00  0.0000E+00  0.0000E+00  0.0000E+00
    -10.926  0.0000E+00  0.0000E+00  0.0000E+00  0.0000E+00
    -10.880  0.0000E+00  0.0000E+00  0.0000E+00  0.0000E+00
    -10.833  0.0000E+00  0.0000E+00  0.0000E+00  0.0000E+00
    -10.786  0.0000E+00  0.0000E+00  0.0000E+00  0.0000E+00
    -10.739  0.0000E+00  0.0000E+00  0.0000E+00  0.0000E+00
    -10.692  0.0000E+00  0.0000E+00  0.0000E+00  0.0000E+00
    -10.645  0.7092E-14  0.7092E-14  0.3331E-15  0.3331E-15
    -10.598  0.9456E-13  0.9456E-13  0.4774E-14  0.4774E-14
    -10.551  0.1251E-11  0.1251E-11  0.6350E-13  0.6350E-13
    -10.504  0.1478E-10  0.1478E-10  0.7576E-12  0.7576E-12
    -10.457  0.1566E-09  0.1566E-09  0.8113E-11  0.8112E-11
    -10.410  0.1487E-08  0.1487E-08  0.7797E-10  0.7796E-10
    -10.363  0.1266E-07  0.1266E-07  0.6726E-09  0.6726E-09
    -10.316  0.9661E-07  0.9661E-07  0.5210E-08  0.5210E-08
    -10.269  0.6608E-06  0.6607E-06  0.3624E-07  0.3624E-07
    -10.222  0.4051E-05  0.4051E-05  0.2265E-06  0.2265E-06
    -10.175  0.2226E-04  0.2226E-04  0.1272E-05  0.1272E-05
    -10.128  0.1096E-03  0.1096E-03  0.6421E-05  0.6421E-05
    -10.081  0.4841E-03  0.4841E-03  0.2916E-04  0.2915E-04
    -10.034  0.1916E-02  0.1916E-02  0.1191E-03  0.1191E-03
     -9.987  0.6798E-02  0.6798E-02  0.4384E-03  0.4384E-03
     -9.940  0.2162E-01  0.2162E-01  0.1454E-02  0.1454E-02
     -9.893  0.6165E-01  0.6165E-01  0.4349E-02  0.4349E-02
     -9.846  0.1576E+00  0.1576E+00  0.1175E-01  0.1175E-01
     -9.799  0.3610E+00  0.3610E+00  0.2870E-01  0.2870E-01
     -9.752  0.7416E+00  0.7416E+00  0.6353E-01  0.6353E-01
     -9.705  0.1366E+01  0.1366E+01  0.1277E+00  0.1277E+00
     -9.658  0.2254E+01  0.2254E+01  0.2335E+00  0.2335E+00
     -9.612  0.3336E+01  0.3336E+01  0.3902E+00  0.3902E+00
     -9.565  0.4426E+01  0.4426E+01  0.5981E+00  0.5981E+00
     -9.518  0.5265E+01  0.5265E+01  0.8453E+00  0.8453E+00
     -9.471  0.5614E+01  0.5614E+01  0.1109E+01  0.1109E+01
     -9.424  0.5366E+01  0.5366E+01  0.1361E+01  0.1361E+01
     -9.377  0.4599E+01  0.4599E+01  0.1577E+01  0.1577E+01
     -9.330  0.3534E+01  0.3534E+01  0.1743E+01  0.1743E+01
     -9.283  0.2437E+01  0.2437E+01  0.1857E+01  0.1857E+01
     -9.236  0.1515E+01  0.1515E+01  0.1928E+01  0.1928E+01
     -9.189  0.8705E+00  0.8705E+00  0.1969E+01  0.1969E+01
     -9.142  0.5244E+00  0.5244E+00  0.1994E+01  0.1994E+01
     -9.095  0.4721E+00  0.4721E+00  0.2016E+01  0.2016E+01
     -9.048  0.7414E+00  0.7414E+00  0.2051E+01  0.2051E+01
     -9.001  0.1414E+01  0.1414E+01  0.2117E+01  0.2117E+01
     -8.954  0.2591E+01  0.2591E+01  0.2239E+01  0.2239E+01
     -8.907  0.4313E+01  0.4313E+01  0.2442E+01  0.2442E+01
     -8.860  0.6449E+01  0.6449E+01  0.2744E+01  0.2744E+01
     -8.813  0.8649E+01  0.8649E+01  0.3151E+01  0.3151E+01
     -8.766  0.1040E+02  0.1040E+02  0.3639E+01  0.3639E+01
     -8.719  0.1121E+02  0.1121E+02  0.4166E+01  0.4166E+01
     -8.672  0.1083E+02  0.1083E+02  0.4674E+01  0.4674E+01
     -8.625  0.9386E+01  0.9386E+01  0.5115E+01  0.5115E+01
     -8.578  0.7290E+01  0.7290E+01  0.5457E+01  0.5457E+01
     -8.531  0.5076E+01  0.5076E+01  0.5696E+01  0.5696E+01
     -8.484  0.3168E+01  0.3169E+01  0.5845E+01  0.5845E+01
     -8.437  0.1773E+01  0.1773E+01  0.5928E+01  0.5928E+01
     -8.391  0.8895E+00  0.8895E+00  0.5970E+01  0.5970E+01
     -8.344  0.4000E+00  0.4000E+00  0.5988E+01  0.5988E+01
     -8.297  0.1613E+00  0.1613E+00  0.5996E+01  0.5996E+01
     -8.250  0.5829E-01  0.5829E-01  0.5999E+01  0.5999E+01
     -8.203  0.1889E-01  0.1889E-01  0.6000E+01  0.6000E+01
     -8.156  0.5485E-02  0.5485E-02  0.6000E+01  0.6000E+01
     -8.109  0.1428E-02  0.1428E-02  0.6000E+01  0.6000E+01
     -8.062  0.3333E-03  0.3333E-03  0.6000E+01  0.6000E+01
     -8.015  0.6973E-04  0.6973E-04  0.6000E+01  0.6000E+01
     -7.968  0.1308E-04  0.1308E-04  0.6000E+01  0.6000E+01
     -7.921  0.2198E-05  0.2198E-05  0.6000E+01  0.6000E+01
     -7.874  0.3312E-06  0.3312E-06  0.6000E+01  0.6000E+01
     -7.827  0.4473E-07  0.4473E-07  0.6000E+01  0.6000E+01
     -7.780  0.5415E-08  0.5415E-08  0.6000E+01  0.6000E+01
     -7.733  0.5875E-09  0.5875E-09  0.6000E+01  0.6000E+01
     -7.686  0.5714E-10  0.5715E-10  0.6000E+01  0.6000E+01
     -7.639  0.5054E-11  0.5054E-11  0.6000E+01  0.6000E+01
     -7.592  0.1381E-11  0.1381E-11  0.6000E+01  0.6000E+01
     -7.545  0.1225E-10  0.1225E-10  0.6000E+01  0.6000E+01
     -7.498  0.1347E-09  0.1347E-09  0.6000E+01  0.6000E+01
     -7.451  0.1331E-08  0.1331E-08  0.6000E+01  0.6000E+01
     -7.404  0.1179E-07  0.1179E-07  0.6000E+01  0.6000E+01
     -7.357  0.9362E-07  0.9362E-07  0.6000E+01  0.6000E+01
     -7.310  0.6662E-06  0.6662E-06  0.6000E+01  0.6000E+01
     -7.263  0.4250E-05  0.4250E-05  0.6000E+01  0.6000E+01
     -7.216  0.2430E-04  0.2430E-04  0.6000E+01  0.6000E+01
     -7.170  0.1245E-03  0.1245E-03  0.6000E+01  0.6000E+01
     -7.123  0.5721E-03  0.5721E-03  0.6000E+01  0.6000E+01
     -7.076  0.2356E-02  0.2356E-02  0.6000E+01  0.6000E+01
     -7.029  0.8697E-02  0.8697E-02  0.6001E+01  0.6001E+01
     -6.982  0.2878E-01  0.2878E-01  0.6002E+01  0.6002E+01
     -6.935  0.8538E-01  0.8538E-01  0.6006E+01  0.6006E+01
     -6.888  0.2271E+00  0.2271E+00  0.6017E+01  0.6017E+01
     -6.841  0.5413E+00  0.5413E+00  0.6042E+01  0.6042E+01
     -6.794  0.1157E+01  0.1157E+01  0.6096E+01  0.6096E+01
     -6.747  0.2216E+01  0.2216E+01  0.6200E+01  0.6200E+01
     -6.700  0.3807E+01  0.3807E+01  0.6379E+01  0.6379E+01
     -6.653  0.5862E+01  0.5861E+01  0.6654E+01  0.6654E+01
     -6.606  0.8091E+01  0.8091E+01  0.7034E+01  0.7034E+01
     -6.559  0.1001E+02  0.1001E+02  0.7505E+01  0.7505E+01
     -6.512  0.1111E+02  0.1111E+02  0.8026E+01  0.8026E+01
     -6.465  0.1105E+02  0.1105E+02  0.8545E+01  0.8545E+01
     -6.418  0.9851E+01  0.9851E+01  0.9008E+01  0.9008E+01
     -6.371  0.7874E+01  0.7875E+01  0.9378E+01  0.9378E+01
     -6.324  0.5643E+01  0.5643E+01  0.9643E+01  0.9643E+01
     -6.277  0.3625E+01  0.3625E+01  0.9813E+01  0.9813E+01
     -6.230  0.2088E+01  0.2088E+01  0.9911E+01  0.9911E+01
     -6.183  0.1078E+01  0.1078E+01  0.9962E+01  0.9962E+01
     -6.136  0.4990E+00  0.4990E+00  0.9985E+01  0.9985E+01
     -6.089  0.2070E+00  0.2070E+00  0.9995E+01  0.9995E+01
     -6.042  0.7701E-01  0.7701E-01  0.9998E+01  0.9998E+01
     -5.995  0.2568E-01  0.2568E-01  0.1000E+02  0.1000E+02
     -5.948  0.7676E-02  0.7676E-02  0.1000E+02  0.1000E+02
     -5.902  0.2057E-02  0.2057E-02  0.1000E+02  0.1000E+02
     -5.855  0.4941E-03  0.4941E-03  0.1000E+02  0.1000E+02
     -5.808  0.1064E-03  0.1064E-03  0.1000E+02  0.1000E+02
     -5.761  0.2053E-04  0.2053E-04  0.1000E+02  0.1000E+02
     -5.714  0.3552E-05  0.3552E-05  0.1000E+02  0.1000E+02
     -5.667  0.5509E-06  0.5509E-06  0.1000E+02  0.1000E+02
     -5.620  0.7658E-07  0.7658E-07  0.1000E+02  0.1000E+02
     -5.573  0.9541E-08  0.9541E-08  0.1000E+02  0.1000E+02
     -5.526  0.1066E-08  0.1066E-08  0.1000E+02  0.1000E+02
     -5.479  0.1066E-09  0.1067E-09  0.1000E+02  0.1000E+02
     -5.432  0.9570E-11  0.9570E-11  0.1000E+02  0.1000E+02
     -5.385  0.7754E-12  0.7754E-12  0.1000E+02  0.1000E+02
     -5.338  0.5674E-13  0.5674E-13  0.1000E+02  0.1000E+02
     -5.291  0.0000E+00  0.0000E+00  0.1000E+02  0.1000E+02
     -5.244  0.0000E+00  0.0000E+00  0.1000E+02  0.1000E+02
     -5.197  0.0000E+00  0.0000E+00  0.1000E+02  0.1000E+02
     -5.150  0.0000E+00  0.0000E+00  0.1000E+02  0.1000E+02
     -5.103  0.0000E+00  0.0000E+00  0.1000E+02  0.1000E+02
     -5.056  0.0000E+00  0.0000E+00  0.1000E+02  0.1000E+02
     -5.009  0.0000E+00  0.0000E+00  0.1000E+02  0.1000E+02
     -4.962  0.0000E+00  0.0000E+00  0.1000E+02  0.1000E+02
     -4.915  0.0000E+00  0.0000E+00  0.1000E+02  0.1000E+02
     -4.868  0.0000E+00  0.0000E+00  0.1000E+02  0.1000E+02
     -4.821  0.0000E+00  0.0000E+00  0.1000E+02  0.1000E+02
     -4.774  0.0000E+00  0.0000E+00  0.1000E+02  0.1000E+02
     -4.727  0.0000E+00  0.0000E+00  0.1000E+02  0.1000E+02
     -4.681  0.0000E+00  0.0000E+00  0.1000E+02  0.1000E+02
     -4.634  0.0000E+00  0.0000E+00  0.1000E+02  0.1000E+02
     -4.587  0.0000E+00  0.0000E+00  0.1000E+02  0.1000E+02
     -4.540  0.0000E+00  0.0000E+00  0.1000E+02  0.1000E+02
     -4.493  0.0000E+00  0.0000E+00  0.1000E+02  0.1000E+02
     -4.446  0.0000E+00  0.0000E+00  0.1000E+02  0.1000E+02
     -4.399  0.0000E+00  0.0000E+00  0.1000E+02  0.1000E+02
     -4.352  0.0000E+00  0.0000E+00  0.1000E+02  0.1000E+02
     -4.305  0.0000E+00  0.0000E+00  0.1000E+02  0.1000E+02
     -4.258  0.1891E-13  0.1891E-13  0.1000E+02  0.1000E+02
     -4.211  0.2411E-12  0.2411E-12  0.1000E+02  0.1000E+02
     -4.164  0.3177E-11  0.3177E-11  0.1000E+02  0.1000E+02
     -4.117  0.3716E-10  0.3716E-10  0.1000E+02  0.1000E+02
     -4.070  0.3897E-09  0.3897E-09  0.1000E+02  0.1000E+02
     -4.023  0.3663E-08  0.3663E-08  0.1000E+02  0.1000E+02
     -3.976  0.3086E-07  0.3086E-07  0.1000E+02  0.1000E+02
     -3.929  0.2330E-06  0.2330E-06  0.1000E+02  0.1000E+02
     -3.882  0.1577E-05  0.1577E-05  0.1000E+02  0.1000E+02
     -3.835  0.9570E-05  0.9569E-05  0.1000E+02  0.1000E+02
     -3.788  0.5204E-04  0.5204E-04  0.1000E+02  0.1000E+02
     -3.741  0.2537E-03  0.2537E-03  0.1000E+02  0.1000E+02
     -3.694  0.1109E-02  0.1109E-02  0.1000E+02  0.1000E+02
     -3.647  0.4342E-02  0.4342E-02  0.1000E+02  0.1000E+02
     -3.600  0.1525E-01  0.1525E-01  0.1000E+02  0.1000E+02
     -3.553  0.4799E-01  0.4799E-01  0.1000E+02  0.1000E+02
     -3.506  0.1354E+00  0.1354E+00  0.1001E+02  0.1001E+02
     -3.459  0.3426E+00  0.3426E+00  0.1003E+02  0.1003E+02
     -3.413  0.7768E+00  0.7768E+00  0.1006E+02  0.1006E+02
     -3.366  0.1579E+01  0.1579E+01  0.1014E+02  0.1014E+02
     -3.319  0.2878E+01  0.2878E+01  0.1027E+02  0.1027E+02
     -3.272  0.4702E+01  0.4702E+01  0.1049E+02  0.1049E+02
     -3.225  0.6886E+01  0.6886E+01  0.1082E+02  0.1082E+02
     -3.178  0.9042E+01  0.9042E+01  0.1124E+02  0.1124E+02
     -3.131  0.1064E+02  0.1064E+02  0.1174E+02  0.1174E+02
     -3.084  0.1123E+02  0.1123E+02  0.1227E+02  0.1227E+02
     -3.037  0.1063E+02  0.1063E+02  0.1277E+02  0.1277E+02
     -2.990  0.9013E+01  0.9013E+01  0.1319E+02  0.1319E+02
     -2.943  0.6853E+01  0.6853E+01  0.1351E+02  0.1351E+02
     -2.896  0.4671E+01  0.4671E+01  0.1373E+02  0.1373E+02
     -2.849  0.2854E+01  0.2855E+01  0.1387E+02  0.1387E+02
     -2.802  0.1564E+01  0.1564E+01  0.1394E+02  0.1394E+02
     -2.755  0.7680E+00  0.7680E+00  0.1397E+02  0.1397E+02
     -2.708  0.3381E+00  0.3381E+00  0.1399E+02  0.1399E+02
     -2.661  0.1335E+00  0.1335E+00  0.1400E+02  0.1400E+02
     -2.614  0.4722E-01  0.4722E-01  0.1400E+02  0.1400E+02
     -2.567  0.1498E-01  0.1498E-01  0.1400E+02  0.1400E+02
     -2.520  0.4258E-02  0.4258E-02  0.1400E+02  0.1400E+02
     -2.473  0.1085E-02  0.1085E-02  0.1400E+02  0.1400E+02
     -2.426  0.2480E-03  0.2480E-03  0.1400E+02  0.1400E+02
     -2.379  0.5078E-04  0.5078E-04  0.1400E+02  0.1400E+02
     -2.332  0.9323E-05  0.9323E-05  0.1400E+02  0.1400E+02
     -2.285  0.1534E-05  0.1534E-05  0.1400E+02  0.1400E+02
     -2.238  0.2263E-06  0.2263E-06  0.1400E+02  0.1400E+02
     -2.192  0.2992E-07  0.2992E-07  0.1400E+02  0.1400E+02
     -2.145  0.3545E-08  0.3546E-08  0.1400E+02  0.1400E+02
     -2.098  0.3766E-09  0.3766E-09  0.1400E+02  0.1400E+02
     -2.051  0.3586E-10  0.3586E-10  0.1400E+02  0.1400E+02
     -2.004  0.3064E-11  0.3064E-11  0.1400E+02  0.1400E+02
     -1.957  0.2270E-12  0.2270E-12  0.1400E+02  0.1400E+02
     -1.910  0.1891E-13  0.1891E-13  0.1400E+02  0.1400E+02
     -1.863  0.0000E+00  0.0000E+00  0.1400E+02  0.1400E+02
     -1.816  0.0000E+00  0.0000E+00  0.1400E+02  0.1400E+02
     -1.769  0.0000E+00  0.0000E+00  0.1400E+02  0.1400E+02
     -1.722  0.0000E+00  0.0000E+00  0.1400E+02  0.1400E+02
     -1.675  0.1418E-13  0.1418E-13  0.1400E+02  0.1400E+02
     -1.628  0.1868E-12  0.1868E-12  0.1400E+02  0.1400E+02
     -1.581  0.2407E-11  0.2407E-11  0.1400E+02  0.1400E+02
     -1.534  0.2765E-10  0.2765E-10  0.1400E+02  0.1400E+02
     -1.487  0.2847E-09  0.2847E-09  0.1400E+02  0.1400E+02
     -1.440  0.2628E-08  0.2628E-08  0.1400E+02  0.1400E+02
     -1.393  0.2174E-07  0.2174E-07  0.1400E+02  0.1400E+02
     -1.346  0.1612E-06  0.1612E-06  0.1400E+02  0.1400E+02
     -1.299  0.1072E-05  0.1072E-05  0.1400E+02  0.1400E+02
     -1.252  0.6385E-05  0.6384E-05  0.1400E+02  0.1400E+02
     -1.205  0.3410E-04  0.3410E-04  0.1400E+02  0.1400E+02
     -1.158  0.1632E-03  0.1632E-03  0.1400E+02  0.1400E+02
     -1.111  0.7004E-03  0.7004E-03  0.1400E+02  0.1400E+02
     -1.064  0.2694E-02  0.2694E-02  0.1400E+02  0.1400E+02
     -1.017  0.9291E-02  0.9290E-02  0.1400E+02  0.1400E+02
     -0.971  0.2872E-01  0.2872E-01  0.1400E+02  0.1400E+02
     -0.924  0.7958E-01  0.7958E-01  0.1401E+02  0.1401E+02
     -0.877  0.1977E+00  0.1977E+00  0.1401E+02  0.1401E+02
     -0.830  0.4403E+00  0.4403E+00  0.1404E+02  0.1404E+02
     -0.783  0.8792E+00  0.8792E+00  0.1408E+02  0.1408E+02
     -0.736  0.1574E+01  0.1574E+01  0.1415E+02  0.1415E+02
     -0.689  0.2529E+01  0.2529E+01  0.1427E+02  0.1427E+02
     -0.642  0.3650E+01  0.3650E+01  0.1444E+02  0.1444E+02
     -0.595  0.4743E+01  0.4744E+01  0.1466E+02  0.1466E+02
     -0.548  0.5589E+01  0.5591E+01  0.1493E+02  0.1493E+02
     -0.501  0.6062E+01  0.6066E+01  0.1521E+02  0.1521E+02
     -0.454  0.6250E+01  0.6257E+01  0.1550E+02  0.1551E+02
     -0.407  0.6476E+01  0.6488E+01  0.1581E+02  0.1581E+02
     -0.360  0.7177E+01  0.7196E+01  0.1615E+02  0.1615E+02
     -0.313  0.8684E+01  0.8709E+01  0.1655E+02  0.1656E+02
     -0.266  0.1098E+02  0.1101E+02  0.1707E+02  0.1707E+02
     -0.219  0.1362E+02  0.1364E+02  0.1771E+02  0.1771E+02
     -0.172  0.1582E+02  0.1584E+02  0.1845E+02  0.1846E+02
     -0.125  0.1681E+02  0.1681E+02  0.1924E+02  0.1925E+02
     -0.078  0.1617E+02  0.1616E+02  0.2000E+02  0.2001E+02
     -0.031  0.1402E+02  0.1399E+02  0.2066E+02  0.2066E+02
      0.016  0.1093E+02  0.1090E+02  0.2117E+02  0.2118E+02
      0.063  0.7660E+01  0.7635E+01  0.2153E+02  0.2153E+02
      0.110  0.4831E+01  0.4811E+01  0.2176E+02  0.2176E+02
      0.157  0.2755E+01  0.2741E+01  0.2189E+02  0.2189E+02
      0.204  0.1462E+01  0.1452E+01  0.2196E+02  0.2196E+02
      0.251  0.8200E+00  0.8131E+00  0.2200E+02  0.2200E+02
      0.297  0.6782E+00  0.6709E+00  0.2203E+02  0.2203E+02
      0.344  0.9370E+00  0.9269E+00  0.2207E+02  0.2207E+02
      0.391  0.1548E+01  0.1534E+01  0.2214E+02  0.2214E+02
      0.438  0.2461E+01  0.2443E+01  0.2226E+02  0.2226E+02
      0.485  0.3555E+01  0.3536E+01  0.2243E+02  0.2242E+02
      0.532  0.4616E+01  0.4599E+01  0.2264E+02  0.2264E+02
      0.579  0.5376E+01  0.5366E+01  0.2290E+02  0.2289E+02
      0.626  0.5613E+01  0.5614E+01  0.2316E+02  0.2315E+02
      0.673  0.5254E+01  0.5265E+01  0.2341E+02  0.2340E+02
      0.720  0.4409E+01  0.4426E+01  0.2361E+02  0.2361E+02
      0.767  0.3317E+01  0.3336E+01  0.2377E+02  0.2377E+02
      0.814  0.2237E+01  0.2254E+01  0.2387E+02  0.2387E+02
      0.861  0.1352E+01  0.1366E+01  0.2394E+02  0.2394E+02
      0.908  0.7331E+00  0.7416E+00  0.2397E+02  0.2397E+02
      0.955  0.3562E+00  0.3610E+00  0.2399E+02  0.2399E+02
      1.002  0.1552E+00  0.1576E+00  0.2400E+02  0.2400E+02
      1.049  0.6059E-01  0.6165E-01  0.2400E+02  0.2400E+02
      1.096  0.2121E-01  0.2162E-01  0.2400E+02  0.2400E+02
      1.143  0.6657E-02  0.6798E-02  0.2400E+02  0.2400E+02
      1.190  0.1873E-02  0.1916E-02  0.2400E+02  0.2400E+02
      1.237  0.4722E-03  0.4841E-03  0.2400E+02  0.2400E+02
      1.284  0.1067E-03  0.1096E-03  0.2400E+02  0.2400E+02
      1.331  0.2163E-04  0.2226E-04  0.2400E+02  0.2400E+02
      1.378  0.3929E-05  0.4051E-05  0.2400E+02  0.2400E+02
      1.425  0.6397E-06  0.6608E-06  0.2400E+02  0.2400E+02
      1.472  0.9335E-07  0.9661E-07  0.2400E+02  0.2400E+02
      1.518  0.1221E-07  0.1266E-07  0.2400E+02  0.2400E+02
      1.565  0.1432E-08  0.1487E-08  0.2400E+02  0.2400E+02
      1.612  0.1505E-09  0.1566E-09  0.2400E+02  0.2400E+02
      1.659  0.1418E-10  0.1478E-10  0.2400E+02  0.2400E+02
      1.706  0.1201E-11  0.1248E-11  0.2400E+02  0.2400E+02
      1.753  0.8511E-13  0.9456E-13  0.2400E+02  0.2400E+02
      1.800  0.9456E-14  0.9456E-14  0.2400E+02  0.2400E+02
      1.847  0.0000E+00  0.0000E+00  0.2400E+02  0.2400E+02
      1.894  0.0000E+00  0.0000E+00  0.2400E+02  0.2400E+02
      1.941  0.0000E+00  0.0000E+00  0.2400E+02  0.2400E+02
      1.988  0.0000E+00  0.0000E+00  0.2400E+02  0.2400E+02
      2.035  0.0000E+00  0.0000E+00  0.2400E+02  0.2400E+02
      2.082  0.0000E+00  0.0000E+00  0.2400E+02  0.2400E+02
      2.129  0.0000E+00  0.0000E+00  0.2400E+02  0.2400E+02
      2.176  0.0000E+00  0.0000E+00  0.2400E+02  0.2400E+02
      2.223  0.0000E+00  0.0000E+00  0.2400E+02  0.2400E+02
      2.270  0.0000E+00  0.0000E+00  0.2400E+02  0.2400E+02
      2.317  0.0000E+00  0.0000E+00  0.2400E+02  0.2400E+02
      2.364  0.0000E+00  0.0000E+00  0.2400E+02  0.2400E+02
      2.411  0.0000E+00  0.0000E+00  0.2400E+02  0.2400E+02
      2.458  0.0000E+00  0.0000E+00  0.2400E+02  0.2400E+02
      2.505  0.0000E+00  0.0000E+00  0.2400E+02  0.2400E+02
      2.552  0.0000E+00  0.0000E+00  0.2400E+02  0.2400E+02
      2.599  0.0000E+00  0.0000E+00  0.2400E+02  0.2400E+02
