    8    8    1    2
  0.3825000E+03  0.1500000E-08  0.1500000E-08  0.1360000E-08  0.5000000E-15
  1.000000000000000E-004
  CAR 
 unknown system                          
      8      1     12
 
  0.0000000E+00  0.0000000E+00  0.0000000E+00  0.1000000E+01
    1       -9.490015     -9.490015   1.000000   1.000000
    2       -8.733947     -8.733946   1.000000   1.000000
    3       -8.733947     -8.733946   1.000000   1.000000
    4       -6.514365     -6.514364   0.500001   0.500001
    5       -6.514364     -6.514363   0.499999   0.499999
    6       -3.107628     -3.107627   0.000000   0.000000
    7       -3.107628     -3.107627   0.000000   0.000000
    8       -0.532501     -0.532500   0.000000   0.000000
    9       -0.153311     -0.153729   0.000000   0.000000
   10       -0.153311     -0.153729   0.000000   0.000000
   11       -0.112742     -0.113063   0.000000   0.000000
   12        0.597805      0.598620   0.000000   0.000000
