       N       E                     dE             d eps       ncg     rms          rms(c)
DAV:   1     0.167935052578E+02    0.16794E+02   -0.87917E+02    48   0.180E+02
DAV:   2    -0.110900449509E+02   -0.27884E+02   -0.27721E+02    84   0.532E+01
DAV:   3    -0.137743582460E+02   -0.26843E+01   -0.25239E+01    64   0.221E+01
DAV:   4    -0.138945103229E+02   -0.12015E+00   -0.11176E+00    64   0.419E+00
DAV:   5    -0.138961306339E+02   -0.16203E-02   -0.16188E-02    80   0.483E-01    0.129E+00
DAV:   6    -0.139259894077E+02   -0.29859E-01   -0.71739E-03    72   0.484E-01    0.813E-01
DAV:   7    -0.139498478964E+02   -0.23858E-01   -0.21106E-02    80   0.817E-01    0.696E-02
DAV:   8    -0.139518929571E+02   -0.20451E-02   -0.37910E-04    88   0.998E-02    0.214E-02
DAV:   9    -0.139524299951E+02   -0.53704E-03   -0.16896E-04    80   0.539E-02    0.139E-02
DAV:  10    -0.139528755869E+02   -0.44559E-03   -0.16174E-04    64   0.456E-02    0.706E-03
DAV:  11    -0.139528425667E+02    0.33020E-04   -0.25398E-05    64   0.191E-02    0.494E-03
DAV:  12    -0.139535489196E+02   -0.70635E-03   -0.80829E-05    48   0.295E-02    0.233E-03
DAV:  13    -0.139536793235E+02   -0.13040E-03   -0.47047E-06    72   0.818E-03    0.196E-03
DAV:  14    -0.139538316293E+02   -0.15231E-03   -0.70045E-06    48   0.969E-03    0.847E-04
DAV:  15    -0.139538734571E+02   -0.41828E-04   -0.10651E-06    32   0.387E-03    0.432E-04
DAV:  16    -0.139538876203E+02   -0.14163E-04   -0.20423E-07    40   0.194E-03    0.242E-04
DAV:  17    -0.139538998118E+02   -0.12192E-04   -0.29242E-07    32   0.215E-03    0.732E-05
DAV:  18    -0.139539003160E+02   -0.50416E-06   -0.19269E-08    32   0.696E-04
   1 F= -.13953900E+02 E0= -.13841062E+02  d E =-.225676E+00  mag=     0.0000
