<?xml version="1.0" encoding="ISO-8859-1"?>
<modeling>
 <generator>
  <i name="program" type="string">vasp </i>
  <i name="version" type="string">5.4.4.18Apr17-6-g9f103f2a35  </i>
  <i name="subversion" type="string">(build Aug 24 2024 05:40:03) complex            parallel </i>
  <i name="platform" type="string">IFC22_IMPI </i>
  <i name="date" type="string">2024 11 22 </i>
  <i name="time" type="string">21:42:15 </i>
 </generator>
 <incar>
  <i type="string" name="PREC">normal</i>
  <i type="int" name="ISPIN">     2</i>
  <i type="int" name="ICHARG">     2</i>
  <i type="int" name="NELM">   100</i>
  <i name="EDIFF">      0.00000100</i>
  <i type="int" name="NSW">     0</i>
  <i name="ENCUT">    300.00000000</i>
  <i name="NUPDOWN">      0.00000000</i>
  <i type="int" name="ISMEAR">     0</i>
  <i name="SIGMA">      0.20000000</i>
  <i type="logical" name="LWAVE"> F  </i>
  <i type="logical" name="LCHARG"> F  </i>
  <v type="int" name="KPOINT_BSE">    -1     0     0     0</v>
  <i type="int" name="NELM">   100</i>
 </incar>
 <structure name="primitive_cell" >
  <crystal>
   <varray name="basis" >
    <v>      15.00000000       0.00000000       0.00000000 </v>
    <v>       0.00000000      15.00000000       0.00000000 </v>
    <v>       0.00000000       0.00000000       1.70000000 </v>
   </varray>
   <i name="volume">    382.50000000 </i>
   <varray name="rec_basis" >
    <v>       0.06666667      -0.00000000       0.00000000 </v>
    <v>       0.00000000       0.06666667       0.00000000 </v>
    <v>      -0.00000000      -0.00000000       0.58823529 </v>
   </varray>
  </crystal>
  <varray name="positions" >
   <v>       0.00000000       0.00000000       0.00000000 </v>
  </varray>
 </structure>
 <varray name="primitive_index" >
  <v type="int" >        1 </v>
 </varray>
 <kpoints>
  <generation param="Gamma">
   <v type="int" name="divisions">       1        1        1 </v>
   <v name="usershift">      0.00000000       0.00000000       0.00000000 </v>
   <v name="genvec1">      1.00000000      -0.00000000       0.00000000 </v>
   <v name="genvec2">      0.00000000       1.00000000       0.00000000 </v>
   <v name="genvec3">      0.00000000       0.00000000       1.00000000 </v>
   <v name="shift">      0.00000000       0.00000000       0.00000000 </v>
  </generation>
  <varray name="kpointlist" >
   <v>       0.00000000       0.00000000       0.00000000 </v>
  </varray>
  <varray name="weights" >
   <v>       1.00000000 </v>
  </varray>
 </kpoints>
 <parameters>
  <separator name="general" >
   <i type="string" name="SYSTEM">unknown system</i>
   <i type="logical" name="LCOMPAT"> F  </i>
  </separator>
  <separator name="electronic" >
   <i type="string" name="PREC">normal</i>
   <i name="ENMAX">    300.00000000</i>
   <i name="ENAUG">    400.00000000</i>
   <i name="EDIFF">      0.00000100</i>
   <i type="int" name="IALGO">    38</i>
   <i type="int" name="IWAVPR">    10</i>
   <i type="int" name="NBANDS">    12</i>
   <i name="NELECT">      8.00000000</i>
   <i type="int" name="TURBO">     0</i>
   <i type="int" name="IRESTART">     0</i>
   <i type="int" name="NREBOOT">     0</i>
   <i type="int" name="NMIN">     0</i>
   <i name="EREF">      0.00000000</i>
   <separator name="electronic smearing" >
    <i type="int" name="ISMEAR">     0</i>
    <i name="SIGMA">      0.20000000</i>
    <i name="KSPACING">      0.50000000</i>
    <i type="logical" name="KGAMMA"> T  </i>
   </separator>
   <separator name="electronic projectors" >
    <i type="logical" name="LREAL"> F  </i>
    <v name="ROPT">      0.00000000</v>
    <i type="int" name="LMAXPAW">  -100</i>
    <i type="int" name="LMAXMIX">     2</i>
    <i type="logical" name="NLSPLINE"> F  </i>
   </separator>
   <separator name="electronic startup" >
    <i type="int" name="ISTART">     0</i>
    <i type="int" name="ICHARG">     2</i>
    <i type="int" name="INIWAV">     1</i>
   </separator>
   <separator name="electronic spin" >
    <i type="int" name="ISPIN">     2</i>
    <i type="logical" name="LNONCOLLINEAR"> F  </i>
    <v name="MAGMOM">      0.00000000      0.00000000      0.00000000      0.00000000      0.00000000      0.00000000      0.00000000      0.00000000</v>
    <i name="NUPDOWN">      0.00000000</i>
    <i type="logical" name="LSORBIT"> F  </i>
    <v name="SAXIS">      0.00000000      0.00000000      1.00000000</v>
    <i type="logical" name="LSPIRAL"> F  </i>
    <v name="QSPIRAL">      0.00000000      0.00000000      0.00000000</v>
    <i type="logical" name="LZEROZ"> F  </i>
   </separator>
   <separator name="electronic exchange-correlation" >
    <i type="logical" name="LASPH"> F  </i>
    <i type="logical" name="LMETAGGA"> F  </i>
   </separator>
   <separator name="electronic convergence" >
    <i type="int" name="NELM">   100</i>
    <i type="int" name="NELMDL">    -5</i>
    <i type="int" name="NELMIN">     2</i>
    <i name="ENINI">    300.00000000</i>
    <separator name="electronic convergence detail" >
     <i type="logical" name="LDIAG"> T  </i>
     <i type="logical" name="LSUBROT"> F  </i>
     <i name="WEIMIN">      0.00000000</i>
     <i name="EBREAK">      0.00000002</i>
     <i name="DEPER">      0.30000000</i>
     <i type="int" name="NRMM">     4</i>
     <i name="TIME">      0.40000000</i>
    </separator>
   </separator>
   <separator name="electronic mixer" >
    <i name="AMIX">      0.40000000</i>
    <i name="BMIX">      1.00000000</i>
    <i name="AMIN">      0.10000000</i>
    <i name="AMIX_MAG">      1.60000000</i>
    <i name="BMIX_MAG">      1.00000000</i>
    <separator name="electronic mixer details" >
     <i type="int" name="IMIX">     4</i>
     <i type="logical" name="MIXFIRST"> F  </i>
     <i type="int" name="MAXMIX">   -45</i>
     <i name="WC">    100.00000000</i>
     <i type="int" name="INIMIX">     1</i>
     <i type="int" name="MIXPRE">     1</i>
     <i type="int" name="MREMOVE">     5</i>
    </separator>
   </separator>
   <separator name="electronic dipolcorrection" >
    <i type="logical" name="LDIPOL"> F  </i>
    <i type="logical" name="LMONO"> F  </i>
    <i type="int" name="IDIPOL">     0</i>
    <i name="EPSILON">      1.00000000</i>
    <v name="DIPOL">   -100.00000000   -100.00000000   -100.00000000</v>
    <i name="EFIELD">      0.00000000</i>
   </separator>
  </separator>
  <separator name="grids" >
   <i type="int" name="NGX">    64</i>
   <i type="int" name="NGY">    64</i>
   <i type="int" name="NGZ">    60</i>
   <i type="int" name="NGXF">   128</i>
   <i type="int" name="NGYF">   128</i>
   <i type="int" name="NGZF">   120</i>
   <i type="logical" name="ADDGRID"> F  </i>
  </separator>
  <separator name="ionic" >
   <i type="int" name="NSW">     0</i>
   <i type="int" name="IBRION">    -1</i>
   <i type="int" name="MDALGO">     0</i>
   <i type="int" name="ISIF">     2</i>
   <i name="PSTRESS">      0.00000000</i>
   <i name="EDIFFG">      0.00001000</i>
   <i type="int" name="NFREE">     0</i>
   <i name="POTIM">      0.50000000</i>
   <i name="SMASS">     -3.00000000</i>
   <i name="SCALEE">      1.00000000</i>
  </separator>
  <separator name="ionic md" >
   <i name="TEBEG">      0.00010000</i>
   <i name="TEEND">      0.00010000</i>
   <i type="int" name="NBLOCK">     1</i>
   <i type="int" name="KBLOCK">     1</i>
   <i type="int" name="NPACO">   256</i>
   <i name="APACO">     16.00000000</i>
  </separator>
  <separator name="symmetry" >
   <i type="int" name="ISYM">     2</i>
   <i name="SYMPREC">      0.00001000</i>
  </separator>
  <separator name="dos" >
   <i type="int" name="LORBIT">     0</i>
   <v name="RWIGS">     -1.00000000</v>
   <i type="int" name="NEDOS">   301</i>
   <i name="EMIN">     10.00000000</i>
   <i name="EMAX">    -10.00000000</i>
   <i name="EFERMI">      0.00000000</i>
  </separator>
  <separator name="writing" >
   <i type="int" name="NWRITE">     2</i>
   <i type="logical" name="LWAVE"> F  </i>
   <i type="logical" name="LDOWNSAMPLE"> F  </i>
   <i type="logical" name="LCHARG"> F  </i>
   <i type="logical" name="LPARD"> F  </i>
   <i type="logical" name="LVTOT"> F  </i>
   <i type="logical" name="LVHAR"> F  </i>
   <i type="logical" name="LELF"> F  </i>
   <i type="logical" name="LOPTICS"> F  </i>
   <v name="STM">      0.00000000      0.00000000      0.00000000      0.00000000      0.00000000      0.00000000      0.00000000</v>
  </separator>
  <separator name="performance" >
   <i type="int" name="NPAR">     4</i>
   <i type="int" name="NSIM">     4</i>
   <i type="int" name="NBLK">    -1</i>
   <i type="logical" name="LPLANE"> T  </i>
   <i type="logical" name="LSCALAPACK"> T  </i>
   <i type="logical" name="LSCAAWARE"> F  </i>
   <i type="logical" name="LSCALU"> F  </i>
   <i type="logical" name="LASYNC"> F  </i>
   <i type="logical" name="LORBITALREAL"> F  </i>
  </separator>
  <separator name="miscellaneous" >
   <i type="int" name="IDIOT">     3</i>
   <i type="int" name="ISPECIAL">     0</i>
   <i type="logical" name="LMUSIC"> F  </i>
   <v name="POMASS">      1.00000000</v>
   <v name="DARWINR">      0.00000000</v>
   <v name="DARWINV">      1.00000000</v>
   <i type="logical" name="LCORR"> T  </i>
  </separator>
  <i type="logical" name="GGA_COMPAT"> T  </i>
  <i type="logical" name="LBERRY"> F  </i>
  <i type="int" name="ICORELEVEL">     0</i>
  <i type="logical" name="LDAU"> F  </i>
  <i type="int" name="I_CONSTRAINED_M">     0</i>
  <separator name="electronic exchange-correlation" >
   <i type="string" name="GGA">--</i>
   <i type="int" name="VOSKOWN">     0</i>
   <i type="logical" name="LHFCALC"> F  </i>
   <i type="string" name="PRECFOCK"></i>
   <i type="logical" name="LSYMGRAD"> F  </i>
   <i type="logical" name="LHFONE"> F  </i>
   <i type="logical" name="LRHFCALC"> F  </i>
   <i type="logical" name="LTHOMAS"> F  </i>
   <i type="logical" name="LMODELHF"> F  </i>
   <i name="ENCUT4O">     -1.00000000</i>
   <i type="int" name="EXXOEP">     0</i>
   <i type="int" name="FOURORBIT">     0</i>
   <i name="AEXX">      0.00000000</i>
   <i name="HFALPHA">      0.00000000</i>
   <i name="MCALPHA">      0.00000000</i>
   <i name="ALDAX">      1.00000000</i>
   <i name="AGGAX">      1.00000000</i>
   <i name="ALDAC">      1.00000000</i>
   <i name="AGGAC">      1.00000000</i>
   <i type="int" name="NKREDX">     1</i>
   <i type="int" name="NKREDY">     1</i>
   <i type="int" name="NKREDZ">     1</i>
   <i type="logical" name="SHIFTRED"> F  </i>
   <i type="logical" name="ODDONLY"> F  </i>
   <i type="logical" name="EVENONLY"> F  </i>
   <i type="int" name="LMAXFOCK">     0</i>
   <i type="int" name="NMAXFOCKAE">     0</i>
   <i type="logical" name="LFOCKAEDFT"> F  </i>
   <i name="HFSCREEN">      0.00000000</i>
   <i name="HFSCREENC">      0.00000000</i>
   <i type="int" name="NBANDSGWLOW">     0</i>
  </separator>
  <separator name="vdW DFT" >
   <i type="logical" name="LUSE_VDW"> F  </i>
   <i name="Zab_VDW">     -0.84910000</i>
   <i name="PARAM1">      0.12340000</i>
   <i name="PARAM2">      1.00000000</i>
   <i name="PARAM3">      0.00000000</i>
  </separator>
  <separator name="model GW" >
   <i type="int" name="MODEL_GW">     0</i>
   <i name="MODEL_EPS0">    229.50000000</i>
   <i name="MODEL_ALPHA">      1.00000000</i>
  </separator>
  <separator name="linear response parameters" >
   <i type="logical" name="LEPSILON"> F  </i>
   <i type="logical" name="LRPA"> F  </i>
   <i type="logical" name="LNABLA"> F  </i>
   <i type="logical" name="LVEL"> F  </i>
   <i type="int" name="KINTER">     0</i>
   <i name="CSHIFT">      0.10000000</i>
   <i name="OMEGAMAX">     -1.00000000</i>
   <i name="DEG_THRESHOLD">      0.00200000</i>
   <i name="RTIME">     -0.10000000</i>
   <i name="WPLASMAI">      0.00000000</i>
   <v name="DFIELD">      0.00000000      0.00000000      0.00000000</v>
   <v name="WPLASMA">      0.00000000      0.00000000      0.00000000      0.00000000      0.00000000      0.00000000      0.00000000      0.00000000      0.00000000</v>
  </separator>
  <separator name="orbital magnetization" >
   <i type="logical" name="NUCIND"> F  </i>
   <v name="MAGPOS">      0.00000000      0.00000000      0.00000000</v>
   <i type="logical" name="LNICSALL"> T  </i>
   <i type="logical" name="ORBITALMAG"> F  </i>
   <i type="logical" name="LMAGBLOCH"> F  </i>
   <i type="logical" name="LCHIMAG"> F  </i>
   <i type="logical" name="LGAUGE"> T  </i>
   <i type="int" name="MAGATOM">     0</i>
   <v name="MAGDIPOL">      0.00000000      0.00000000      0.00000000</v>
   <v name="AVECCONST">      0.00000000      0.00000000      0.00000000</v>
  </separator>
  <separator name="response functions" >
   <i type="logical" name="LADDER"> F  </i>
   <i type="logical" name="LRPAFORCE"> F  </i>
   <i type="logical" name="LFXC"> F  </i>
   <i type="logical" name="LHARTREE"> T  </i>
   <i type="int" name="IBSE">     0</i>
   <v type="int" name="KPOINT">    -1     0     0     0</v>
   <i type="logical" name="LTCTE"> F  </i>
   <i type="logical" name="LTETE"> F  </i>
   <i type="logical" name="LTRIPLET"> F  </i>
   <i type="logical" name="LFXCEPS"> F  </i>
   <i type="logical" name="LFXHEG"> F  </i>
   <i type="int" name="NATURALO">     2</i>
   <i type="logical" name="L2ORDER"> F  </i>
   <i type="logical" name="LMP2LT"> F  </i>
   <i type="logical" name="LUSEW"> F  </i>
   <i name="ENCUTGW">     -2.00000000</i>
   <i name="ENCUTGWSOFT">     -2.00000000</i>
   <i name="ENCUTLF">     -1.00000000</i>
   <i type="int" name="LMAXMP2">    -1</i>
   <i name="SCISSOR">      0.00000000</i>
   <i type="int" name="NOMEGA">     0</i>
   <i type="int" name="NOMEGAR">     0</i>
   <i type="int" name="NBANDSGW">    -1</i>
   <i type="int" name="NBANDSO">    -1</i>
   <i type="int" name="NBANDSV">    -1</i>
   <i type="int" name="NELM">   100</i>
   <i type="int" name="NELMHF">     1</i>
   <i type="int" name="DIM">     3</i>
   <i type="int" name="ANTIRES">     0</i>
   <i name="OMEGAMAX">    -30.00000000</i>
   <i name="OMEGAMIN">    -30.00000000</i>
   <i name="OMEGATL">   -200.00000000</i>
   <i type="int" name="OMEGAGRID">   140</i>
   <i name="CSHIFT">     -0.10000000</i>
   <i type="logical" name="SELFENERGY"> F  </i>
   <i type="logical" name="LSPECTRAL"> F  </i>
   <i type="logical" name="LSPECTRALGW"> F  </i>
   <i type="logical" name="LSINGLES"> F  </i>
   <i type="logical" name="LFERMIGW"> F  </i>
   <i type="logical" name="ODDONLYGW"> F  </i>
   <i type="logical" name="EVENONLYGW"> F  </i>
   <i type="int" name="NKREDLFX">     1</i>
   <i type="int" name="NKREDLFY">     1</i>
   <i type="int" name="NKREDLFZ">     1</i>
   <i type="int" name="MAXMEM">  2800</i>
   <i type="int" name="TELESCOPE">     0</i>
   <i type="int" name="TAUPAR">     1</i>
   <i type="int" name="OMEGAPAR">    -1</i>
   <i name="LAMBDA">      1.00000000</i>
  </separator>
  <separator name="External order field" >
   <i name="OFIELD_KAPPA">      0.00000000</i>
   <v name="OFIELD_K">      0.00000000      0.00000000      0.00000000</v>
   <i name="OFIELD_Q6_NEAR">      0.00000000</i>
   <i name="OFIELD_Q6_FAR">      0.00000000</i>
   <i name="OFIELD_A">      0.00000000</i>
  </separator>
 </parameters>
 <atominfo>
  <atoms>       8 </atoms>
  <types>       1 </types>
  <array name="atoms" >
   <dimension dim="1">ion</dimension>
   <field type="string">element</field>
   <field type="int">atomtype</field>
   <set>
    <rc><c>H </c><c>   1</c></rc>
    <rc><c>H </c><c>   1</c></rc>
    <rc><c>H </c><c>   1</c></rc>
    <rc><c>H </c><c>   1</c></rc>
    <rc><c>H </c><c>   1</c></rc>
    <rc><c>H </c><c>   1</c></rc>
    <rc><c>H </c><c>   1</c></rc>
    <rc><c>H </c><c>   1</c></rc>
   </set>
  </array>
  <array name="atomtypes" >
   <dimension dim="1">type</dimension>
   <field type="int">atomspertype</field>
   <field type="string">element</field>
   <field>mass</field>
   <field>valence</field>
   <field type="string">pseudopotential</field>
   <set>
    <rc><c>   8</c><c>H </c><c>      1.00000000</c><c>      1.00000000</c><c>  PAW_PBE H 15Jun2001                   </c></rc>
   </set>
  </array>
 </atominfo>
 <structure name="initialpos" >
  <crystal>
   <varray name="basis" >
    <v>      15.00000000       0.00000000       0.00000000 </v>
    <v>       0.00000000      15.00000000       0.00000000 </v>
    <v>       0.00000000       0.00000000      13.60000000 </v>
   </varray>
   <i name="volume">   3060.00000000 </i>
   <varray name="rec_basis" >
    <v>       0.06666667      -0.00000000       0.00000000 </v>
    <v>       0.00000000       0.06666667       0.00000000 </v>
    <v>      -0.00000000      -0.00000000       0.07352941 </v>
   </varray>
  </crystal>
  <varray name="positions" >
   <v>       0.00000000       0.00000000       0.00000000 </v>
   <v>       0.00000000       0.00000000       0.12500000 </v>
   <v>       0.00000000       0.00000000       0.25000000 </v>
   <v>       0.00000000       0.00000000       0.37500000 </v>
   <v>       0.00000000       0.00000000       0.50000000 </v>
   <v>       0.00000000       0.00000000       0.62500000 </v>
   <v>       0.00000000       0.00000000       0.75000000 </v>
   <v>       0.00000000       0.00000000       0.87500000 </v>
  </varray>
 </structure>
 <calculation>
  <scstep>
   <time name="dav">    0.48    0.48</time>
   <time name="total">    1.22    1.22</time>
   <energy>
    <i name="alphaZ">      0.05095252 </i>
    <i name="ewald">     50.88766109 </i>
    <i name="hartreedc">   -111.31925005 </i>
    <i name="XCdc">     16.22107609 </i>
    <i name="pawpsdc">     17.07221949 </i>
    <i name="pawaedc">    -17.14324176 </i>
    <i name="eentropy">     -0.02748777 </i>
    <i name="bandstr">    -38.51462743 </i>
    <i name="atom">     99.56620307 </i>
    <i name="e_fr_energy">     16.79350526 </i>
    <i name="e_wo_entrp">     16.82099303 </i>
    <i name="e_0_energy">     16.80724914 </i>
   </energy>
  </scstep>
  <scstep>
   <time name="dav">    0.71    0.71</time>
   <time name="total">    0.71    0.71</time>
   <energy>
    <i name="e_fr_energy">    -11.09004495 </i>
    <i name="e_wo_entrp">    -11.08849048 </i>
    <i name="e_0_energy">    -11.08926771 </i>
   </energy>
  </scstep>
  <scstep>
   <time name="dav">    0.57    0.56</time>
   <time name="total">    0.57    0.57</time>
   <energy>
    <i name="e_fr_energy">    -13.77435825 </i>
    <i name="e_wo_entrp">    -13.55712107 </i>
    <i name="e_0_energy">    -13.66573966 </i>
   </energy>
  </scstep>
  <scstep>
   <time name="dav">    0.56    0.56</time>
   <time name="total">    0.56    0.56</time>
   <energy>
    <i name="e_fr_energy">    -13.89451032 </i>
    <i name="e_wo_entrp">    -13.66883500 </i>
    <i name="e_0_energy">    -13.78167266 </i>
   </energy>
  </scstep>
  <scstep>
   <time name="dav">    0.68    0.68</time>
   <time name="total">    0.90    0.90</time>
   <energy>
    <i name="e_fr_energy">    -13.89613063 </i>
    <i name="e_wo_entrp">    -13.67045480 </i>
    <i name="e_0_energy">    -13.78329272 </i>
   </energy>
  </scstep>
  <scstep>
   <time name="dav">    0.63    0.63</time>
   <time name="total">    1.60    1.60</time>
   <energy>
    <i name="e_fr_energy">    -13.92598941 </i>
    <i name="e_wo_entrp">    -13.70031357 </i>
    <i name="e_0_energy">    -13.81315149 </i>
   </energy>
  </scstep>
  <scstep>
   <time name="dav">    0.69    0.69</time>
   <time name="total">    1.66    1.66</time>
   <energy>
    <i name="e_fr_energy">    -13.94984790 </i>
    <i name="e_wo_entrp">    -13.72417206 </i>
    <i name="e_0_energy">    -13.83700998 </i>
   </energy>
  </scstep>
  <scstep>
   <time name="dav">    0.74    0.74</time>
   <time name="total">    1.73    1.73</time>
   <energy>
    <i name="e_fr_energy">    -13.95189296 </i>
    <i name="e_wo_entrp">    -13.72621712 </i>
    <i name="e_0_energy">    -13.83905504 </i>
   </energy>
  </scstep>
  <scstep>
   <time name="dav">    0.69    0.69</time>
   <time name="total">    1.65    1.65</time>
   <energy>
    <i name="e_fr_energy">    -13.95243000 </i>
    <i name="e_wo_entrp">    -13.72675416 </i>
    <i name="e_0_energy">    -13.83959208 </i>
   </energy>
  </scstep>
  <scstep>
   <time name="dav">    0.58    0.58</time>
   <time name="total">    1.55    1.55</time>
   <energy>
    <i name="e_fr_energy">    -13.95287559 </i>
    <i name="e_wo_entrp">    -13.72719975 </i>
    <i name="e_0_energy">    -13.84003767 </i>
   </energy>
  </scstep>
  <scstep>
   <time name="dav">    0.59    0.59</time>
   <time name="total">    1.56    1.56</time>
   <energy>
    <i name="e_fr_energy">    -13.95284257 </i>
    <i name="e_wo_entrp">    -13.72716673 </i>
    <i name="e_0_energy">    -13.84000465 </i>
   </energy>
  </scstep>
  <scstep>
   <time name="dav">    0.47    0.47</time>
   <time name="total">    1.44    1.44</time>
   <energy>
    <i name="e_fr_energy">    -13.95354892 </i>
    <i name="e_wo_entrp">    -13.72787309 </i>
    <i name="e_0_energy">    -13.84071100 </i>
   </energy>
  </scstep>
  <scstep>
   <time name="dav">    0.64    0.64</time>
   <time name="total">    1.60    1.60</time>
   <energy>
    <i name="e_fr_energy">    -13.95367932 </i>
    <i name="e_wo_entrp">    -13.72800349 </i>
    <i name="e_0_energy">    -13.84084141 </i>
   </energy>
  </scstep>
  <scstep>
   <time name="dav">    0.47    0.47</time>
   <time name="total">    1.43    1.45</time>
   <energy>
    <i name="e_fr_energy">    -13.95383163 </i>
    <i name="e_wo_entrp">    -13.72815580 </i>
    <i name="e_0_energy">    -13.84099371 </i>
   </energy>
  </scstep>
  <scstep>
   <time name="dav">    0.36    0.36</time>
   <time name="total">    1.33    1.33</time>
   <energy>
    <i name="e_fr_energy">    -13.95387346 </i>
    <i name="e_wo_entrp">    -13.72819762 </i>
    <i name="e_0_energy">    -13.84103554 </i>
   </energy>
  </scstep>
  <scstep>
   <time name="dav">    0.41    0.41</time>
   <time name="total">    1.39    1.39</time>
   <energy>
    <i name="e_fr_energy">    -13.95388762 </i>
    <i name="e_wo_entrp">    -13.72821179 </i>
    <i name="e_0_energy">    -13.84104970 </i>
   </energy>
  </scstep>
  <scstep>
   <time name="dav">    0.36    0.36</time>
   <time name="total">    1.33    1.33</time>
   <energy>
    <i name="e_fr_energy">    -13.95389981 </i>
    <i name="e_wo_entrp">    -13.72822398 </i>
    <i name="e_0_energy">    -13.84106190 </i>
   </energy>
  </scstep>
  <scstep>
   <time name="dav">    0.36    0.36</time>
   <time name="total">    1.11    1.11</time>
   <energy>
    <i name="alphaZ">      0.05095252 </i>
    <i name="ewald">     50.88766109 </i>
    <i name="hartreedc">   -113.69775124 </i>
    <i name="XCdc">     16.47263238 </i>
    <i name="pawpsdc">     23.94558800 </i>
    <i name="pawaedc">    -24.00896530 </i>
    <i name="eentropy">     -0.22567583 </i>
    <i name="bandstr">    -66.94454501 </i>
    <i name="atom">     99.56620307 </i>
    <i name="e_fr_energy">    -13.95390032 </i>
    <i name="e_wo_entrp">    -13.72822448 </i>
    <i name="e_0_energy">    -13.84106240 </i>
   </energy>
  </scstep>
  <structure>
   <crystal>
    <varray name="basis" >
     <v>      15.00000000       0.00000000       0.00000000 </v>
     <v>       0.00000000      15.00000000       0.00000000 </v>
     <v>       0.00000000       0.00000000      13.60000000 </v>
    </varray>
    <i name="volume">   3060.00000000 </i>
    <varray name="rec_basis" >
     <v>       0.06666667      -0.00000000       0.00000000 </v>
     <v>       0.00000000       0.06666667       0.00000000 </v>
     <v>      -0.00000000      -0.00000000       0.07352941 </v>
    </varray>
   </crystal>
   <varray name="positions" >
    <v>       0.00000000       0.00000000       0.00000000 </v>
    <v>       0.00000000       0.00000000       0.12500000 </v>
    <v>       0.00000000       0.00000000       0.25000000 </v>
    <v>       0.00000000       0.00000000       0.37500000 </v>
    <v>       0.00000000       0.00000000       0.50000000 </v>
    <v>       0.00000000       0.00000000       0.62500000 </v>
    <v>       0.00000000       0.00000000       0.75000000 </v>
    <v>       0.00000000       0.00000000       0.87500000 </v>
   </varray>
  </structure>
  <varray name="forces" >
   <v>      -0.00000000       0.00000000      -0.00000000 </v>
   <v>       0.00000000       0.00000000      -0.00000000 </v>
   <v>       0.00000000      -0.00000000       0.00000000 </v>
   <v>      -0.00000000       0.00000000      -0.00000000 </v>
   <v>       0.00000000       0.00000000       0.00000000 </v>
   <v>      -0.00000000      -0.00000000       0.00000000 </v>
   <v>      -0.00000000      -0.00000000       0.00000000 </v>
   <v>       0.00000000      -0.00000000      -0.00000000 </v>
  </varray>
  <varray name="stress" >
   <v>      -0.46859492      -0.00000000      -0.00000000 </v>
   <v>      -0.00000000      -0.46859492      -0.00000000 </v>
   <v>      -0.00000000      -0.00000000     -12.35930033 </v>
  </varray>
  <energy>
   <i name="e_fr_energy">    -13.95390032 </i>
   <i name="e_wo_entrp">    -13.84106240 </i>
   <i name="e_0_energy">     -0.22567583 </i>
  </energy>
  <time name="totalsc">   24.73   24.76</time>
  <eigenvalues>
   <array>
    <dimension dim="1">band</dimension>
    <dimension dim="2">kpoint</dimension>
    <dimension dim="3">spin</dimension>
    <field>eigene</field>
    <field>occ</field>
    <set>
     <set comment="spin 1">
      <set comment="kpoint 1">
       <r>   -9.4900    1.0000 </r>
       <r>   -8.7339    1.0000 </r>
       <r>   -8.7339    1.0000 </r>
       <r>   -6.5144    0.5000 </r>
       <r>   -6.5144    0.5000 </r>
       <r>   -3.1076    0.0000 </r>
       <r>   -3.1076    0.0000 </r>
       <r>   -0.5325    0.0000 </r>
       <r>   -0.1533    0.0000 </r>
       <r>   -0.1533    0.0000 </r>
       <r>   -0.1127    0.0000 </r>
       <r>    0.5978    0.0000 </r>
      </set>
     </set>
     <set comment="spin 2">
      <set comment="kpoint 1">
       <r>   -9.4900    1.0000 </r>
       <r>   -8.7339    1.0000 </r>
       <r>   -8.7339    1.0000 </r>
       <r>   -6.5144    0.5000 </r>
       <r>   -6.5144    0.5000 </r>
       <r>   -3.1076    0.0000 </r>
       <r>   -3.1076    0.0000 </r>
       <r>   -0.5325    0.0000 </r>
       <r>   -0.1537    0.0000 </r>
       <r>   -0.1537    0.0000 </r>
       <r>   -0.1131    0.0000 </r>
       <r>    0.5986    0.0000 </r>
      </set>
     </set>
    </set>
   </array>
  </eigenvalues>
  <separator name="orbital magnetization" >
   <v name="MAGDIPOLOUT">      0.00000000      0.00000000      0.00000000</v>
  </separator>
  <dos>
   <i name="efermi">     -6.51436377 </i>
   <total>
    <array>
     <dimension dim="1">gridpoints</dimension>
     <dimension dim="2">spin</dimension>
     <field>energy</field>
     <field>total</field>
     <field>integrated</field>
     <set>
      <set comment="spin 1">
       <r>   -11.4900     0.0000     0.0000 </r>
       <r>   -11.4431     0.0000     0.0000 </r>
       <r>   -11.3961     0.0000     0.0000 </r>
       <r>   -11.3491     0.0000     0.0000 </r>
       <r>   -11.3022     0.0000     0.0000 </r>
       <r>   -11.2552     0.0000     0.0000 </r>
       <r>   -11.2082     0.0000     0.0000 </r>
       <r>   -11.1613     0.0000     0.0000 </r>
       <r>   -11.1143     0.0000     0.0000 </r>
       <r>   -11.0674     0.0000     0.0000 </r>
       <r>   -11.0204     0.0000     0.0000 </r>
       <r>   -10.9734     0.0000     0.0000 </r>
       <r>   -10.9265     0.0000     0.0000 </r>
       <r>   -10.8795     0.0000     0.0000 </r>
       <r>   -10.8325     0.0000     0.0000 </r>
       <r>   -10.7856     0.0000     0.0000 </r>
       <r>   -10.7386     0.0000     0.0000 </r>
       <r>   -10.6917     0.0000     0.0000 </r>
       <r>   -10.6447     0.0000     0.0000 </r>
       <r>   -10.5977     0.0000     0.0000 </r>
       <r>   -10.5508     0.0000     0.0000 </r>
       <r>   -10.5038     0.0000     0.0000 </r>
       <r>   -10.4568     0.0000     0.0000 </r>
       <r>   -10.4099     0.0000     0.0000 </r>
       <r>   -10.3629     0.0000     0.0000 </r>
       <r>   -10.3160     0.0000     0.0000 </r>
       <r>   -10.2690     0.0000     0.0000 </r>
       <r>   -10.2220     0.0000     0.0000 </r>
       <r>   -10.1751     0.0000     0.0000 </r>
       <r>   -10.1281     0.0001     0.0000 </r>
       <r>   -10.0812     0.0005     0.0000 </r>
       <r>   -10.0342     0.0019     0.0001 </r>
       <r>    -9.9872     0.0068     0.0004 </r>
       <r>    -9.9403     0.0216     0.0015 </r>
       <r>    -9.8933     0.0616     0.0043 </r>
       <r>    -9.8463     0.1576     0.0117 </r>
       <r>    -9.7994     0.3610     0.0287 </r>
       <r>    -9.7524     0.7416     0.0635 </r>
       <r>    -9.7055     1.3656     0.1277 </r>
       <r>    -9.6585     2.2543     0.2335 </r>
       <r>    -9.6115     3.3362     0.3902 </r>
       <r>    -9.5646     4.4263     0.5981 </r>
       <r>    -9.5176     5.2647     0.8453 </r>
       <r>    -9.4706     5.6137     1.1089 </r>
       <r>    -9.4237     5.3664     1.3610 </r>
       <r>    -9.3767     4.5991     1.5769 </r>
       <r>    -9.3298     3.5341     1.7429 </r>
       <r>    -9.2828     2.4369     1.8574 </r>
       <r>    -9.2358     1.5147     1.9285 </r>
       <r>    -9.1889     0.8705     1.9694 </r>
       <r>    -9.1419     0.5244     1.9940 </r>
       <r>    -9.0949     0.4721     2.0162 </r>
       <r>    -9.0480     0.7414     2.0510 </r>
       <r>    -9.0010     1.4136     2.1174 </r>
       <r>    -8.9541     2.5912     2.2391 </r>
       <r>    -8.9071     4.3127     2.4416 </r>
       <r>    -8.8601     6.4493     2.7445 </r>
       <r>    -8.8132     8.6494     3.1507 </r>
       <r>    -8.7662    10.4000     3.6391 </r>
       <r>    -8.7193    11.2107     4.1655 </r>
       <r>    -8.6723    10.8339     4.6743 </r>
       <r>    -8.6253     9.3860     5.1151 </r>
       <r>    -8.5784     7.2900     5.4575 </r>
       <r>    -8.5314     5.0759     5.6958 </r>
       <r>    -8.4844     3.1685     5.8446 </r>
       <r>    -8.4375     1.7731     5.9279 </r>
       <r>    -8.3905     0.8895     5.9697 </r>
       <r>    -8.3436     0.4000     5.9885 </r>
       <r>    -8.2966     0.1613     5.9960 </r>
       <r>    -8.2496     0.0583     5.9988 </r>
       <r>    -8.2027     0.0189     5.9997 </r>
       <r>    -8.1557     0.0055     5.9999 </r>
       <r>    -8.1087     0.0014     6.0000 </r>
       <r>    -8.0618     0.0003     6.0000 </r>
       <r>    -8.0148     0.0001     6.0000 </r>
       <r>    -7.9679     0.0000     6.0000 </r>
       <r>    -7.9209     0.0000     6.0000 </r>
       <r>    -7.8739     0.0000     6.0000 </r>
       <r>    -7.8270     0.0000     6.0000 </r>
       <r>    -7.7800     0.0000     6.0000 </r>
       <r>    -7.7330     0.0000     6.0000 </r>
       <r>    -7.6861     0.0000     6.0000 </r>
       <r>    -7.6391     0.0000     6.0000 </r>
       <r>    -7.5922     0.0000     6.0000 </r>
       <r>    -7.5452     0.0000     6.0000 </r>
       <r>    -7.4982     0.0000     6.0000 </r>
       <r>    -7.4513     0.0000     6.0000 </r>
       <r>    -7.4043     0.0000     6.0000 </r>
       <r>    -7.3573     0.0000     6.0000 </r>
       <r>    -7.3104     0.0000     6.0000 </r>
       <r>    -7.2634     0.0000     6.0000 </r>
       <r>    -7.2165     0.0000     6.0000 </r>
       <r>    -7.1695     0.0001     6.0000 </r>
       <r>    -7.1225     0.0006     6.0000 </r>
       <r>    -7.0756     0.0024     6.0001 </r>
       <r>    -7.0286     0.0087     6.0006 </r>
       <r>    -6.9817     0.0288     6.0019 </r>
       <r>    -6.9347     0.0854     6.0059 </r>
       <r>    -6.8877     0.2271     6.0166 </r>
       <r>    -6.8408     0.5413     6.0420 </r>
       <r>    -6.7938     1.1568     6.0963 </r>
       <r>    -6.7468     2.2164     6.2004 </r>
       <r>    -6.6999     3.8068     6.3792 </r>
       <r>    -6.6529     5.8615     6.6545 </r>
       <r>    -6.6060     8.0912     7.0344 </r>
       <r>    -6.5590    10.0129     7.5047 </r>
       <r>    -6.5120    11.1084     8.0263 </r>
       <r>    -6.4651    11.0483     8.5452 </r>
       <r>    -6.4181     9.8511     9.0078 </r>
       <r>    -6.3711     7.8745     9.3776 </r>
       <r>    -6.3242     5.6429     9.6426 </r>
       <r>    -6.2772     3.6252     9.8129 </r>
       <r>    -6.2303     2.0879     9.9109 </r>
       <r>    -6.1833     1.0780     9.9615 </r>
       <r>    -6.1363     0.4990     9.9850 </r>
       <r>    -6.0894     0.2070     9.9947 </r>
       <r>    -6.0424     0.0770     9.9983 </r>
       <r>    -5.9954     0.0257     9.9995 </r>
       <r>    -5.9485     0.0077     9.9999 </r>
       <r>    -5.9015     0.0021    10.0000 </r>
       <r>    -5.8546     0.0005    10.0000 </r>
       <r>    -5.8076     0.0001    10.0000 </r>
       <r>    -5.7606     0.0000    10.0000 </r>
       <r>    -5.7137     0.0000    10.0000 </r>
       <r>    -5.6667     0.0000    10.0000 </r>
       <r>    -5.6198     0.0000    10.0000 </r>
       <r>    -5.5728     0.0000    10.0000 </r>
       <r>    -5.5258     0.0000    10.0000 </r>
       <r>    -5.4789     0.0000    10.0000 </r>
       <r>    -5.4319     0.0000    10.0000 </r>
       <r>    -5.3849     0.0000    10.0000 </r>
       <r>    -5.3380     0.0000    10.0000 </r>
       <r>    -5.2910     0.0000    10.0000 </r>
       <r>    -5.2441     0.0000    10.0000 </r>
       <r>    -5.1971     0.0000    10.0000 </r>
       <r>    -5.1501     0.0000    10.0000 </r>
       <r>    -5.1032     0.0000    10.0000 </r>
       <r>    -5.0562     0.0000    10.0000 </r>
       <r>    -5.0092     0.0000    10.0000 </r>
       <r>    -4.9623     0.0000    10.0000 </r>
       <r>    -4.9153     0.0000    10.0000 </r>
       <r>    -4.8684     0.0000    10.0000 </r>
       <r>    -4.8214     0.0000    10.0000 </r>
       <r>    -4.7744     0.0000    10.0000 </r>
       <r>    -4.7275     0.0000    10.0000 </r>
       <r>    -4.6805     0.0000    10.0000 </r>
       <r>    -4.6335     0.0000    10.0000 </r>
       <r>    -4.5866     0.0000    10.0000 </r>
       <r>    -4.5396     0.0000    10.0000 </r>
       <r>    -4.4927     0.0000    10.0000 </r>
       <r>    -4.4457     0.0000    10.0000 </r>
       <r>    -4.3987     0.0000    10.0000 </r>
       <r>    -4.3518     0.0000    10.0000 </r>
       <r>    -4.3048     0.0000    10.0000 </r>
       <r>    -4.2578     0.0000    10.0000 </r>
       <r>    -4.2109     0.0000    10.0000 </r>
       <r>    -4.1639     0.0000    10.0000 </r>
       <r>    -4.1170     0.0000    10.0000 </r>
       <r>    -4.0700     0.0000    10.0000 </r>
       <r>    -4.0230     0.0000    10.0000 </r>
       <r>    -3.9761     0.0000    10.0000 </r>
       <r>    -3.9291     0.0000    10.0000 </r>
       <r>    -3.8822     0.0000    10.0000 </r>
       <r>    -3.8352     0.0000    10.0000 </r>
       <r>    -3.7882     0.0001    10.0000 </r>
       <r>    -3.7413     0.0003    10.0000 </r>
       <r>    -3.6943     0.0011    10.0001 </r>
       <r>    -3.6473     0.0043    10.0003 </r>
       <r>    -3.6004     0.0152    10.0010 </r>
       <r>    -3.5534     0.0480    10.0032 </r>
       <r>    -3.5065     0.1354    10.0096 </r>
       <r>    -3.4595     0.3426    10.0257 </r>
       <r>    -3.4125     0.7768    10.0622 </r>
       <r>    -3.3656     1.5791    10.1363 </r>
       <r>    -3.3186     2.8779    10.2715 </r>
       <r>    -3.2716     4.7017    10.4923 </r>
       <r>    -3.2247     6.8863    10.8157 </r>
       <r>    -3.1777     9.0420    11.2403 </r>
       <r>    -3.1308    10.6436    11.7402 </r>
       <r>    -3.0838    11.2321    12.2676 </r>
       <r>    -3.0368    10.6263    12.7667 </r>
       <r>    -2.9899     9.0126    13.1899 </r>
       <r>    -2.9429     6.8527    13.5117 </r>
       <r>    -2.8959     4.6711    13.7311 </r>
       <r>    -2.8490     2.8545    13.8652 </r>
       <r>    -2.8020     1.5638    13.9386 </r>
       <r>    -2.7551     0.7680    13.9747 </r>
       <r>    -2.7081     0.3381    13.9905 </r>
       <r>    -2.6611     0.1335    13.9968 </r>
       <r>    -2.6142     0.0472    13.9990 </r>
       <r>    -2.5672     0.0150    13.9997 </r>
       <r>    -2.5203     0.0043    13.9999 </r>
       <r>    -2.4733     0.0011    14.0000 </r>
       <r>    -2.4263     0.0002    14.0000 </r>
       <r>    -2.3794     0.0001    14.0000 </r>
       <r>    -2.3324     0.0000    14.0000 </r>
       <r>    -2.2854     0.0000    14.0000 </r>
       <r>    -2.2385     0.0000    14.0000 </r>
       <r>    -2.1915     0.0000    14.0000 </r>
       <r>    -2.1446     0.0000    14.0000 </r>
       <r>    -2.0976     0.0000    14.0000 </r>
       <r>    -2.0506     0.0000    14.0000 </r>
       <r>    -2.0037     0.0000    14.0000 </r>
       <r>    -1.9567     0.0000    14.0000 </r>
       <r>    -1.9097     0.0000    14.0000 </r>
       <r>    -1.8628     0.0000    14.0000 </r>
       <r>    -1.8158     0.0000    14.0000 </r>
       <r>    -1.7689     0.0000    14.0000 </r>
       <r>    -1.7219     0.0000    14.0000 </r>
       <r>    -1.6749     0.0000    14.0000 </r>
       <r>    -1.6280     0.0000    14.0000 </r>
       <r>    -1.5810     0.0000    14.0000 </r>
       <r>    -1.5340     0.0000    14.0000 </r>
       <r>    -1.4871     0.0000    14.0000 </r>
       <r>    -1.4401     0.0000    14.0000 </r>
       <r>    -1.3932     0.0000    14.0000 </r>
       <r>    -1.3462     0.0000    14.0000 </r>
       <r>    -1.2992     0.0000    14.0000 </r>
       <r>    -1.2523     0.0000    14.0000 </r>
       <r>    -1.2053     0.0000    14.0000 </r>
       <r>    -1.1583     0.0002    14.0000 </r>
       <r>    -1.1114     0.0007    14.0000 </r>
       <r>    -1.0644     0.0027    14.0002 </r>
       <r>    -1.0175     0.0093    14.0006 </r>
       <r>    -0.9705     0.0287    14.0020 </r>
       <r>    -0.9235     0.0796    14.0057 </r>
       <r>    -0.8766     0.1977    14.0150 </r>
       <r>    -0.8296     0.4403    14.0357 </r>
       <r>    -0.7827     0.8792    14.0769 </r>
       <r>    -0.7357     1.5743    14.1509 </r>
       <r>    -0.6887     2.5291    14.2696 </r>
       <r>    -0.6418     3.6495    14.4410 </r>
       <r>    -0.5948     4.7432    14.6638 </r>
       <r>    -0.5478     5.5891    14.9263 </r>
       <r>    -0.5009     6.0622    15.2110 </r>
       <r>    -0.4539     6.2502    15.5045 </r>
       <r>    -0.4070     6.4755    15.8086 </r>
       <r>    -0.3600     7.1773    16.1456 </r>
       <r>    -0.3130     8.6842    16.5535 </r>
       <r>    -0.2661    10.9826    17.0692 </r>
       <r>    -0.2191    13.6186    17.7088 </r>
       <r>    -0.1721    15.8198    18.4517 </r>
       <r>    -0.1252    16.8116    19.2412 </r>
       <r>    -0.0782    16.1708    20.0006 </r>
       <r>    -0.0313    14.0163    20.6589 </r>
       <r>     0.0157    10.9282    21.1721 </r>
       <r>     0.0627     7.6603    21.5318 </r>
       <r>     0.1096     4.8309    21.7587 </r>
       <r>     0.1566     2.7553    21.8881 </r>
       <r>     0.2036     1.4617    21.9567 </r>
       <r>     0.2505     0.8200    21.9953 </r>
       <r>     0.2975     0.6782    22.0271 </r>
       <r>     0.3444     0.9370    22.0711 </r>
       <r>     0.3914     1.5484    22.1438 </r>
       <r>     0.4384     2.4611    22.2594 </r>
       <r>     0.4853     3.5553    22.4264 </r>
       <r>     0.5323     4.6161    22.6432 </r>
       <r>     0.5792     5.3757    22.8956 </r>
       <r>     0.6262     5.6127    23.1592 </r>
       <r>     0.6732     5.2538    23.4059 </r>
       <r>     0.7201     4.4087    23.6130 </r>
       <r>     0.7671     3.3167    23.7687 </r>
       <r>     0.8141     2.2369    23.8738 </r>
       <r>     0.8610     1.3525    23.9373 </r>
       <r>     0.9080     0.7331    23.9717 </r>
       <r>     0.9549     0.3562    23.9884 </r>
       <r>     1.0019     0.1552    23.9957 </r>
       <r>     1.0489     0.0606    23.9986 </r>
       <r>     1.0958     0.0212    23.9996 </r>
       <r>     1.1428     0.0067    23.9999 </r>
       <r>     1.1898     0.0019    24.0000 </r>
       <r>     1.2367     0.0005    24.0000 </r>
       <r>     1.2837     0.0001    24.0000 </r>
       <r>     1.3306     0.0000    24.0000 </r>
       <r>     1.3776     0.0000    24.0000 </r>
       <r>     1.4246     0.0000    24.0000 </r>
       <r>     1.4715     0.0000    24.0000 </r>
       <r>     1.5185     0.0000    24.0000 </r>
       <r>     1.5655     0.0000    24.0000 </r>
       <r>     1.6124     0.0000    24.0000 </r>
       <r>     1.6594     0.0000    24.0000 </r>
       <r>     1.7063     0.0000    24.0000 </r>
       <r>     1.7533     0.0000    24.0000 </r>
       <r>     1.8003     0.0000    24.0000 </r>
       <r>     1.8472     0.0000    24.0000 </r>
       <r>     1.8942     0.0000    24.0000 </r>
       <r>     1.9412     0.0000    24.0000 </r>
       <r>     1.9881     0.0000    24.0000 </r>
       <r>     2.0351     0.0000    24.0000 </r>
       <r>     2.0820     0.0000    24.0000 </r>
       <r>     2.1290     0.0000    24.0000 </r>
       <r>     2.1760     0.0000    24.0000 </r>
       <r>     2.2229     0.0000    24.0000 </r>
       <r>     2.2699     0.0000    24.0000 </r>
       <r>     2.3168     0.0000    24.0000 </r>
       <r>     2.3638     0.0000    24.0000 </r>
       <r>     2.4108     0.0000    24.0000 </r>
       <r>     2.4577     0.0000    24.0000 </r>
       <r>     2.5047     0.0000    24.0000 </r>
       <r>     2.5517     0.0000    24.0000 </r>
       <r>     2.5986     0.0000    24.0000 </r>
      </set>
      <set comment="spin 2">
       <r>   -11.4900     0.0000     0.0000 </r>
       <r>   -11.4431     0.0000     0.0000 </r>
       <r>   -11.3961     0.0000     0.0000 </r>
       <r>   -11.3491     0.0000     0.0000 </r>
       <r>   -11.3022     0.0000     0.0000 </r>
       <r>   -11.2552     0.0000     0.0000 </r>
       <r>   -11.2082     0.0000     0.0000 </r>
       <r>   -11.1613     0.0000     0.0000 </r>
       <r>   -11.1143     0.0000     0.0000 </r>
       <r>   -11.0674     0.0000     0.0000 </r>
       <r>   -11.0204     0.0000     0.0000 </r>
       <r>   -10.9734     0.0000     0.0000 </r>
       <r>   -10.9265     0.0000     0.0000 </r>
       <r>   -10.8795     0.0000     0.0000 </r>
       <r>   -10.8325     0.0000     0.0000 </r>
       <r>   -10.7856     0.0000     0.0000 </r>
       <r>   -10.7386     0.0000     0.0000 </r>
       <r>   -10.6917     0.0000     0.0000 </r>
       <r>   -10.6447     0.0000     0.0000 </r>
       <r>   -10.5977     0.0000     0.0000 </r>
       <r>   -10.5508     0.0000     0.0000 </r>
       <r>   -10.5038     0.0000     0.0000 </r>
       <r>   -10.4568     0.0000     0.0000 </r>
       <r>   -10.4099     0.0000     0.0000 </r>
       <r>   -10.3629     0.0000     0.0000 </r>
       <r>   -10.3160     0.0000     0.0000 </r>
       <r>   -10.2690     0.0000     0.0000 </r>
       <r>   -10.2220     0.0000     0.0000 </r>
       <r>   -10.1751     0.0000     0.0000 </r>
       <r>   -10.1281     0.0001     0.0000 </r>
       <r>   -10.0812     0.0005     0.0000 </r>
       <r>   -10.0342     0.0019     0.0001 </r>
       <r>    -9.9872     0.0068     0.0004 </r>
       <r>    -9.9403     0.0216     0.0015 </r>
       <r>    -9.8933     0.0616     0.0043 </r>
       <r>    -9.8463     0.1576     0.0117 </r>
       <r>    -9.7994     0.3610     0.0287 </r>
       <r>    -9.7524     0.7416     0.0635 </r>
       <r>    -9.7055     1.3656     0.1277 </r>
       <r>    -9.6585     2.2543     0.2335 </r>
       <r>    -9.6115     3.3362     0.3902 </r>
       <r>    -9.5646     4.4263     0.5981 </r>
       <r>    -9.5176     5.2647     0.8453 </r>
       <r>    -9.4706     5.6137     1.1089 </r>
       <r>    -9.4237     5.3664     1.3610 </r>
       <r>    -9.3767     4.5991     1.5769 </r>
       <r>    -9.3298     3.5341     1.7429 </r>
       <r>    -9.2828     2.4369     1.8574 </r>
       <r>    -9.2358     1.5147     1.9285 </r>
       <r>    -9.1889     0.8705     1.9694 </r>
       <r>    -9.1419     0.5244     1.9940 </r>
       <r>    -9.0949     0.4721     2.0162 </r>
       <r>    -9.0480     0.7414     2.0510 </r>
       <r>    -9.0010     1.4136     2.1174 </r>
       <r>    -8.9541     2.5911     2.2391 </r>
       <r>    -8.9071     4.3127     2.4416 </r>
       <r>    -8.8601     6.4492     2.7445 </r>
       <r>    -8.8132     8.6493     3.1506 </r>
       <r>    -8.7662    10.4000     3.6390 </r>
       <r>    -8.7193    11.2107     4.1655 </r>
       <r>    -8.6723    10.8339     4.6743 </r>
       <r>    -8.6253     9.3860     5.1151 </r>
       <r>    -8.5784     7.2900     5.4575 </r>
       <r>    -8.5314     5.0760     5.6958 </r>
       <r>    -8.4844     3.1685     5.8446 </r>
       <r>    -8.4375     1.7731     5.9279 </r>
       <r>    -8.3905     0.8895     5.9697 </r>
       <r>    -8.3436     0.4000     5.9885 </r>
       <r>    -8.2966     0.1613     5.9960 </r>
       <r>    -8.2496     0.0583     5.9988 </r>
       <r>    -8.2027     0.0189     5.9997 </r>
       <r>    -8.1557     0.0055     5.9999 </r>
       <r>    -8.1087     0.0014     6.0000 </r>
       <r>    -8.0618     0.0003     6.0000 </r>
       <r>    -8.0148     0.0001     6.0000 </r>
       <r>    -7.9679     0.0000     6.0000 </r>
       <r>    -7.9209     0.0000     6.0000 </r>
       <r>    -7.8739     0.0000     6.0000 </r>
       <r>    -7.8270     0.0000     6.0000 </r>
       <r>    -7.7800     0.0000     6.0000 </r>
       <r>    -7.7330     0.0000     6.0000 </r>
       <r>    -7.6861     0.0000     6.0000 </r>
       <r>    -7.6391     0.0000     6.0000 </r>
       <r>    -7.5922     0.0000     6.0000 </r>
       <r>    -7.5452     0.0000     6.0000 </r>
       <r>    -7.4982     0.0000     6.0000 </r>
       <r>    -7.4513     0.0000     6.0000 </r>
       <r>    -7.4043     0.0000     6.0000 </r>
       <r>    -7.3573     0.0000     6.0000 </r>
       <r>    -7.3104     0.0000     6.0000 </r>
       <r>    -7.2634     0.0000     6.0000 </r>
       <r>    -7.2165     0.0000     6.0000 </r>
       <r>    -7.1695     0.0001     6.0000 </r>
       <r>    -7.1225     0.0006     6.0000 </r>
       <r>    -7.0756     0.0024     6.0001 </r>
       <r>    -7.0286     0.0087     6.0006 </r>
       <r>    -6.9817     0.0288     6.0019 </r>
       <r>    -6.9347     0.0854     6.0059 </r>
       <r>    -6.8877     0.2271     6.0166 </r>
       <r>    -6.8408     0.5413     6.0420 </r>
       <r>    -6.7938     1.1568     6.0963 </r>
       <r>    -6.7468     2.2163     6.2004 </r>
       <r>    -6.6999     3.8067     6.3792 </r>
       <r>    -6.6529     5.8615     6.6544 </r>
       <r>    -6.6060     8.0911     7.0344 </r>
       <r>    -6.5590    10.0128     7.5046 </r>
       <r>    -6.5120    11.1084     8.0263 </r>
       <r>    -6.4651    11.0483     8.5452 </r>
       <r>    -6.4181     9.8511     9.0078 </r>
       <r>    -6.3711     7.8745     9.3776 </r>
       <r>    -6.3242     5.6430     9.6426 </r>
       <r>    -6.2772     3.6252     9.8129 </r>
       <r>    -6.2303     2.0879     9.9109 </r>
       <r>    -6.1833     1.0780     9.9615 </r>
       <r>    -6.1363     0.4990     9.9850 </r>
       <r>    -6.0894     0.2070     9.9947 </r>
       <r>    -6.0424     0.0770     9.9983 </r>
       <r>    -5.9954     0.0257     9.9995 </r>
       <r>    -5.9485     0.0077     9.9999 </r>
       <r>    -5.9015     0.0021    10.0000 </r>
       <r>    -5.8546     0.0005    10.0000 </r>
       <r>    -5.8076     0.0001    10.0000 </r>
       <r>    -5.7606     0.0000    10.0000 </r>
       <r>    -5.7137     0.0000    10.0000 </r>
       <r>    -5.6667     0.0000    10.0000 </r>
       <r>    -5.6198     0.0000    10.0000 </r>
       <r>    -5.5728     0.0000    10.0000 </r>
       <r>    -5.5258     0.0000    10.0000 </r>
       <r>    -5.4789     0.0000    10.0000 </r>
       <r>    -5.4319     0.0000    10.0000 </r>
       <r>    -5.3849     0.0000    10.0000 </r>
       <r>    -5.3380     0.0000    10.0000 </r>
       <r>    -5.2910     0.0000    10.0000 </r>
       <r>    -5.2441     0.0000    10.0000 </r>
       <r>    -5.1971     0.0000    10.0000 </r>
       <r>    -5.1501     0.0000    10.0000 </r>
       <r>    -5.1032     0.0000    10.0000 </r>
       <r>    -5.0562     0.0000    10.0000 </r>
       <r>    -5.0092     0.0000    10.0000 </r>
       <r>    -4.9623     0.0000    10.0000 </r>
       <r>    -4.9153     0.0000    10.0000 </r>
       <r>    -4.8684     0.0000    10.0000 </r>
       <r>    -4.8214     0.0000    10.0000 </r>
       <r>    -4.7744     0.0000    10.0000 </r>
       <r>    -4.7275     0.0000    10.0000 </r>
       <r>    -4.6805     0.0000    10.0000 </r>
       <r>    -4.6335     0.0000    10.0000 </r>
       <r>    -4.5866     0.0000    10.0000 </r>
       <r>    -4.5396     0.0000    10.0000 </r>
       <r>    -4.4927     0.0000    10.0000 </r>
       <r>    -4.4457     0.0000    10.0000 </r>
       <r>    -4.3987     0.0000    10.0000 </r>
       <r>    -4.3518     0.0000    10.0000 </r>
       <r>    -4.3048     0.0000    10.0000 </r>
       <r>    -4.2578     0.0000    10.0000 </r>
       <r>    -4.2109     0.0000    10.0000 </r>
       <r>    -4.1639     0.0000    10.0000 </r>
       <r>    -4.1170     0.0000    10.0000 </r>
       <r>    -4.0700     0.0000    10.0000 </r>
       <r>    -4.0230     0.0000    10.0000 </r>
       <r>    -3.9761     0.0000    10.0000 </r>
       <r>    -3.9291     0.0000    10.0000 </r>
       <r>    -3.8822     0.0000    10.0000 </r>
       <r>    -3.8352     0.0000    10.0000 </r>
       <r>    -3.7882     0.0001    10.0000 </r>
       <r>    -3.7413     0.0003    10.0000 </r>
       <r>    -3.6943     0.0011    10.0001 </r>
       <r>    -3.6473     0.0043    10.0003 </r>
       <r>    -3.6004     0.0152    10.0010 </r>
       <r>    -3.5534     0.0480    10.0032 </r>
       <r>    -3.5065     0.1354    10.0096 </r>
       <r>    -3.4595     0.3426    10.0257 </r>
       <r>    -3.4125     0.7768    10.0622 </r>
       <r>    -3.3656     1.5791    10.1363 </r>
       <r>    -3.3186     2.8778    10.2715 </r>
       <r>    -3.2716     4.7017    10.4923 </r>
       <r>    -3.2247     6.8863    10.8157 </r>
       <r>    -3.1777     9.0420    11.2403 </r>
       <r>    -3.1308    10.6436    11.7401 </r>
       <r>    -3.0838    11.2321    12.2676 </r>
       <r>    -3.0368    10.6263    12.7667 </r>
       <r>    -2.9899     9.0126    13.1899 </r>
       <r>    -2.9429     6.8528    13.5117 </r>
       <r>    -2.8959     4.6712    13.7311 </r>
       <r>    -2.8490     2.8545    13.8652 </r>
       <r>    -2.8020     1.5638    13.9386 </r>
       <r>    -2.7551     0.7680    13.9747 </r>
       <r>    -2.7081     0.3381    13.9905 </r>
       <r>    -2.6611     0.1335    13.9968 </r>
       <r>    -2.6142     0.0472    13.9990 </r>
       <r>    -2.5672     0.0150    13.9997 </r>
       <r>    -2.5203     0.0043    13.9999 </r>
       <r>    -2.4733     0.0011    14.0000 </r>
       <r>    -2.4263     0.0002    14.0000 </r>
       <r>    -2.3794     0.0001    14.0000 </r>
       <r>    -2.3324     0.0000    14.0000 </r>
       <r>    -2.2854     0.0000    14.0000 </r>
       <r>    -2.2385     0.0000    14.0000 </r>
       <r>    -2.1915     0.0000    14.0000 </r>
       <r>    -2.1446     0.0000    14.0000 </r>
       <r>    -2.0976     0.0000    14.0000 </r>
       <r>    -2.0506     0.0000    14.0000 </r>
       <r>    -2.0037     0.0000    14.0000 </r>
       <r>    -1.9567     0.0000    14.0000 </r>
       <r>    -1.9097     0.0000    14.0000 </r>
       <r>    -1.8628     0.0000    14.0000 </r>
       <r>    -1.8158     0.0000    14.0000 </r>
       <r>    -1.7689     0.0000    14.0000 </r>
       <r>    -1.7219     0.0000    14.0000 </r>
       <r>    -1.6749     0.0000    14.0000 </r>
       <r>    -1.6280     0.0000    14.0000 </r>
       <r>    -1.5810     0.0000    14.0000 </r>
       <r>    -1.5340     0.0000    14.0000 </r>
       <r>    -1.4871     0.0000    14.0000 </r>
       <r>    -1.4401     0.0000    14.0000 </r>
       <r>    -1.3932     0.0000    14.0000 </r>
       <r>    -1.3462     0.0000    14.0000 </r>
       <r>    -1.2992     0.0000    14.0000 </r>
       <r>    -1.2523     0.0000    14.0000 </r>
       <r>    -1.2053     0.0000    14.0000 </r>
       <r>    -1.1583     0.0002    14.0000 </r>
       <r>    -1.1114     0.0007    14.0000 </r>
       <r>    -1.0644     0.0027    14.0002 </r>
       <r>    -1.0175     0.0093    14.0006 </r>
       <r>    -0.9705     0.0287    14.0020 </r>
       <r>    -0.9235     0.0796    14.0057 </r>
       <r>    -0.8766     0.1977    14.0150 </r>
       <r>    -0.8296     0.4403    14.0357 </r>
       <r>    -0.7827     0.8792    14.0769 </r>
       <r>    -0.7357     1.5743    14.1509 </r>
       <r>    -0.6887     2.5292    14.2696 </r>
       <r>    -0.6418     3.6497    14.4410 </r>
       <r>    -0.5948     4.7438    14.6638 </r>
       <r>    -0.5478     5.5906    14.9264 </r>
       <r>    -0.5009     6.0656    15.2112 </r>
       <r>    -0.4539     6.2571    15.5051 </r>
       <r>    -0.4070     6.4875    15.8097 </r>
       <r>    -0.3600     7.1958    16.1477 </r>
       <r>    -0.3130     8.7086    16.5566 </r>
       <r>    -0.2661    11.0099    17.0737 </r>
       <r>    -0.2191    13.6433    17.7144 </r>
       <r>    -0.1721    15.8354    18.4581 </r>
       <r>    -0.1252    16.8135    19.2477 </r>
       <r>    -0.0782    16.1585    20.0065 </r>
       <r>    -0.0313    13.9935    20.6637 </r>
       <r>     0.0157    10.9010    21.1756 </r>
       <r>     0.0627     7.6347    21.5341 </r>
       <r>     0.1096     4.8106    21.7601 </r>
       <r>     0.1566     2.7411    21.8888 </r>
       <r>     0.2036     1.4524    21.9570 </r>
       <r>     0.2505     0.8131    21.9952 </r>
       <r>     0.2975     0.6709    22.0267 </r>
       <r>     0.3444     0.9269    22.0702 </r>
       <r>     0.3914     1.5341    22.1423 </r>
       <r>     0.4384     2.4429    22.2570 </r>
       <r>     0.4853     3.5358    22.4230 </r>
       <r>     0.5323     4.5995    22.6390 </r>
       <r>     0.5792     5.3665    22.8911 </r>
       <r>     0.6262     5.6138    23.1547 </r>
       <r>     0.6732     5.2647    23.4019 </r>
       <r>     0.7201     4.4263    23.6098 </r>
       <r>     0.7671     3.3362    23.7665 </r>
       <r>     0.8141     2.2543    23.8723 </r>
       <r>     0.8610     1.3656    23.9365 </r>
       <r>     0.9080     0.7416    23.9713 </r>
       <r>     0.9549     0.3610    23.9883 </r>
       <r>     1.0019     0.1576    23.9957 </r>
       <r>     1.0489     0.0616    23.9985 </r>
       <r>     1.0958     0.0216    23.9996 </r>
       <r>     1.1428     0.0068    23.9999 </r>
       <r>     1.1898     0.0019    24.0000 </r>
       <r>     1.2367     0.0005    24.0000 </r>
       <r>     1.2837     0.0001    24.0000 </r>
       <r>     1.3306     0.0000    24.0000 </r>
       <r>     1.3776     0.0000    24.0000 </r>
       <r>     1.4246     0.0000    24.0000 </r>
       <r>     1.4715     0.0000    24.0000 </r>
       <r>     1.5185     0.0000    24.0000 </r>
       <r>     1.5655     0.0000    24.0000 </r>
       <r>     1.6124     0.0000    24.0000 </r>
       <r>     1.6594     0.0000    24.0000 </r>
       <r>     1.7063     0.0000    24.0000 </r>
       <r>     1.7533     0.0000    24.0000 </r>
       <r>     1.8003     0.0000    24.0000 </r>
       <r>     1.8472     0.0000    24.0000 </r>
       <r>     1.8942     0.0000    24.0000 </r>
       <r>     1.9412     0.0000    24.0000 </r>
       <r>     1.9881     0.0000    24.0000 </r>
       <r>     2.0351     0.0000    24.0000 </r>
       <r>     2.0820     0.0000    24.0000 </r>
       <r>     2.1290     0.0000    24.0000 </r>
       <r>     2.1760     0.0000    24.0000 </r>
       <r>     2.2229     0.0000    24.0000 </r>
       <r>     2.2699     0.0000    24.0000 </r>
       <r>     2.3168     0.0000    24.0000 </r>
       <r>     2.3638     0.0000    24.0000 </r>
       <r>     2.4108     0.0000    24.0000 </r>
       <r>     2.4577     0.0000    24.0000 </r>
       <r>     2.5047     0.0000    24.0000 </r>
       <r>     2.5517     0.0000    24.0000 </r>
       <r>     2.5986     0.0000    24.0000 </r>
      </set>
     </set>
    </array>
   </total>
  </dos>
 </calculation>
 <structure name="finalpos" >
  <crystal>
   <varray name="basis" >
    <v>      15.00000000       0.00000000       0.00000000 </v>
    <v>       0.00000000      15.00000000       0.00000000 </v>
    <v>       0.00000000       0.00000000      13.60000000 </v>
   </varray>
   <i name="volume">   3060.00000000 </i>
   <varray name="rec_basis" >
    <v>       0.06666667      -0.00000000       0.00000000 </v>
    <v>       0.00000000       0.06666667       0.00000000 </v>
    <v>      -0.00000000      -0.00000000       0.07352941 </v>
   </varray>
  </crystal>
  <varray name="positions" >
   <v>       0.00000000       0.00000000       0.00000000 </v>
   <v>       0.00000000       0.00000000       0.12500000 </v>
   <v>       0.00000000       0.00000000       0.25000000 </v>
   <v>       0.00000000       0.00000000       0.37500000 </v>
   <v>       0.00000000       0.00000000       0.50000000 </v>
   <v>       0.00000000       0.00000000       0.62500000 </v>
   <v>       0.00000000       0.00000000       0.75000000 </v>
   <v>       0.00000000       0.00000000       0.87500000 </v>
  </varray>
 </structure>
</modeling>
