   8   8   0   0
  0.4050000E+03  0.1500000E-08  0.1500000E-08  0.1440000E-08  0.5000000E-15
  1.000000000000000E-004
  CAR 
 unknown system                          
      2.59912496    -11.18371740  301     -6.58257427      1.00000000
    -11.184  0.0000E+00  0.0000E+00  0.0000E+00  0.0000E+00
    -11.138  0.0000E+00  0.0000E+00  0.0000E+00  0.0000E+00
    -11.092  0.0000E+00  0.0000E+00  0.0000E+00  0.0000E+00
    -11.046  0.0000E+00  0.0000E+00  0.0000E+00  0.0000E+00
    -11.000  0.0000E+00  0.0000E+00  0.0000E+00  0.0000E+00
    -10.954  0.0000E+00  0.0000E+00  0.0000E+00  0.0000E+00
    -10.908  0.0000E+00  0.0000E+00  0.0000E+00  0.0000E+00
    -10.862  0.0000E+00  0.0000E+00  0.0000E+00  0.0000E+00
    -10.816  0.0000E+00  0.0000E+00  0.0000E+00  0.0000E+00
    -10.770  0.0000E+00  0.0000E+00  0.0000E+00  0.0000E+00
    -10.724  0.0000E+00  0.0000E+00  0.0000E+00  0.0000E+00
    -10.678  0.0000E+00  0.0000E+00  0.0000E+00  0.0000E+00
    -10.632  0.0000E+00  0.0000E+00  0.0000E+00  0.0000E+00
    -10.586  0.0000E+00  0.0000E+00  0.0000E+00  0.0000E+00
    -10.541  0.0000E+00  0.0000E+00  0.0000E+00  0.0000E+00
    -10.495  0.0000E+00  0.0000E+00  0.0000E+00  0.0000E+00
    -10.449  0.0000E+00  0.0000E+00  0.0000E+00  0.0000E+00
    -10.403  0.0000E+00  0.0000E+00  0.0000E+00  0.0000E+00
    -10.357  0.2417E-14  0.2417E-14  0.1110E-15  0.1110E-15
    -10.311  0.3141E-13  0.3141E-13  0.1554E-14  0.1554E-14
    -10.265  0.4205E-12  0.4205E-12  0.2087E-13  0.2087E-13
    -10.219  0.4944E-11  0.4944E-11  0.2480E-12  0.2480E-12
    -10.173  0.5229E-10  0.5229E-10  0.2650E-11  0.2650E-11
    -10.127  0.4982E-09  0.4981E-09  0.2554E-10  0.2554E-10
    -10.081  0.4273E-08  0.4273E-08  0.2219E-09  0.2219E-09
    -10.035  0.3301E-07  0.3301E-07  0.1739E-08  0.1739E-08
     -9.989  0.2297E-06  0.2297E-06  0.1229E-07  0.1229E-07
     -9.943  0.1439E-05  0.1439E-05  0.7839E-07  0.7839E-07
     -9.897  0.8118E-05  0.8117E-05  0.4513E-06  0.4513E-06
     -9.851  0.4124E-04  0.4124E-04  0.2346E-05  0.2346E-05
     -9.805  0.1887E-03  0.1887E-03  0.1102E-04  0.1102E-04
     -9.759  0.7777E-03  0.7777E-03  0.4675E-04  0.4674E-04
     -9.714  0.2886E-02  0.2886E-02  0.1793E-03  0.1793E-03
     -9.668  0.9647E-02  0.9646E-02  0.6225E-03  0.6225E-03
     -9.622  0.2904E-01  0.2904E-01  0.1957E-02  0.1957E-02
     -9.576  0.7873E-01  0.7872E-01  0.5574E-02  0.5573E-02
     -9.530  0.1922E+00  0.1922E+00  0.1440E-01  0.1440E-01
     -9.484  0.4227E+00  0.4227E+00  0.3383E-01  0.3383E-01
     -9.438  0.8373E+00  0.8372E+00  0.7229E-01  0.7229E-01
     -9.392  0.1494E+01  0.1494E+01  0.1409E+00  0.1409E+00
     -9.346  0.2400E+01  0.2400E+01  0.2512E+00  0.2512E+00
     -9.300  0.3472E+01  0.3472E+01  0.4107E+00  0.4107E+00
     -9.254  0.4526E+01  0.4526E+01  0.6186E+00  0.6186E+00
     -9.208  0.5313E+01  0.5313E+01  0.8627E+00  0.8627E+00
     -9.162  0.5617E+01  0.5617E+01  0.1121E+01  0.1121E+01
     -9.116  0.5350E+01  0.5350E+01  0.1367E+01  0.1367E+01
     -9.070  0.4591E+01  0.4591E+01  0.1577E+01  0.1577E+01
     -9.024  0.3555E+01  0.3555E+01  0.1741E+01  0.1741E+01
     -8.978  0.2502E+01  0.2502E+01  0.1856E+01  0.1856E+01
     -8.933  0.1647E+01  0.1647E+01  0.1931E+01  0.1931E+01
     -8.887  0.1133E+01  0.1134E+01  0.1983E+01  0.1983E+01
     -8.841  0.1046E+01  0.1046E+01  0.2032E+01  0.2032E+01
     -8.795  0.1453E+01  0.1453E+01  0.2098E+01  0.2098E+01
     -8.749  0.2421E+01  0.2421E+01  0.2210E+01  0.2210E+01
     -8.703  0.3966E+01  0.3966E+01  0.2392E+01  0.2392E+01
     -8.657  0.5976E+01  0.5976E+01  0.2666E+01  0.2666E+01
     -8.611  0.8150E+01  0.8150E+01  0.3041E+01  0.3041E+01
     -8.565  0.1002E+02  0.1002E+02  0.3501E+01  0.3501E+01
     -8.519  0.1110E+02  0.1110E+02  0.4011E+01  0.4011E+01
     -8.473  0.1108E+02  0.1108E+02  0.4520E+01  0.4520E+01
     -8.427  0.9953E+01  0.9953E+01  0.4977E+01  0.4977E+01
     -8.381  0.8056E+01  0.8056E+01  0.5347E+01  0.5347E+01
     -8.335  0.5873E+01  0.5873E+01  0.5617E+01  0.5617E+01
     -8.289  0.3856E+01  0.3856E+01  0.5794E+01  0.5794E+01
     -8.243  0.2280E+01  0.2280E+01  0.5899E+01  0.5899E+01
     -8.197  0.1215E+01  0.1215E+01  0.5955E+01  0.5955E+01
     -8.151  0.5826E+00  0.5826E+00  0.5982E+01  0.5982E+01
     -8.106  0.2517E+00  0.2517E+00  0.5993E+01  0.5993E+01
     -8.060  0.9795E-01  0.9795E-01  0.5998E+01  0.5998E+01
     -8.014  0.3433E-01  0.3433E-01  0.5999E+01  0.5999E+01
     -7.968  0.1083E-01  0.1083E-01  0.6000E+01  0.6000E+01
     -7.922  0.3080E-02  0.3080E-02  0.6000E+01  0.6000E+01
     -7.876  0.7884E-03  0.7884E-03  0.6000E+01  0.6000E+01
     -7.830  0.1818E-03  0.1818E-03  0.6000E+01  0.6000E+01
     -7.784  0.3774E-04  0.3774E-04  0.6000E+01  0.6000E+01
     -7.738  0.7057E-05  0.7058E-05  0.6000E+01  0.6000E+01
     -7.692  0.1188E-05  0.1188E-05  0.6000E+01  0.6000E+01
     -7.646  0.1802E-06  0.1802E-06  0.6000E+01  0.6000E+01
     -7.600  0.2464E-07  0.2464E-07  0.6000E+01  0.6000E+01
     -7.554  0.3278E-08  0.3278E-08  0.6000E+01  0.6000E+01
     -7.508  0.2633E-08  0.2633E-08  0.6000E+01  0.6000E+01
     -7.462  0.1897E-07  0.1897E-07  0.6000E+01  0.6000E+01
     -7.416  0.1405E-06  0.1405E-06  0.6000E+01  0.6000E+01
     -7.370  0.9392E-06  0.9391E-06  0.6000E+01  0.6000E+01
     -7.325  0.5652E-05  0.5652E-05  0.6000E+01  0.6000E+01
     -7.279  0.3064E-04  0.3063E-04  0.6000E+01  0.6000E+01
     -7.233  0.1495E-03  0.1495E-03  0.6000E+01  0.6000E+01
     -7.187  0.6573E-03  0.6573E-03  0.6000E+01  0.6000E+01
     -7.141  0.2602E-02  0.2602E-02  0.6000E+01  0.6000E+01
     -7.095  0.9278E-02  0.9278E-02  0.6001E+01  0.6001E+01
     -7.049  0.2979E-01  0.2979E-01  0.6002E+01  0.6002E+01
     -7.003  0.8616E-01  0.8615E-01  0.6006E+01  0.6006E+01
     -6.957  0.2244E+00  0.2244E+00  0.6016E+01  0.6016E+01
     -6.911  0.5264E+00  0.5264E+00  0.6040E+01  0.6040E+01
     -6.865  0.1112E+01  0.1112E+01  0.6091E+01  0.6091E+01
     -6.819  0.2116E+01  0.2116E+01  0.6189E+01  0.6189E+01
     -6.773  0.3627E+01  0.3627E+01  0.6355E+01  0.6355E+01
     -6.727  0.5598E+01  0.5598E+01  0.6613E+01  0.6613E+01
     -6.681  0.7782E+01  0.7782E+01  0.6970E+01  0.6970E+01
     -6.635  0.9744E+01  0.9744E+01  0.7418E+01  0.7418E+01
     -6.589  0.1099E+02  0.1099E+02  0.7923E+01  0.7923E+01
     -6.543  0.1116E+02  0.1116E+02  0.8435E+01  0.8435E+01
     -6.498  0.1021E+02  0.1021E+02  0.8905E+01  0.8905E+01
     -6.452  0.8414E+01  0.8415E+01  0.9291E+01  0.9291E+01
     -6.406  0.6245E+01  0.6245E+01  0.9578E+01  0.9578E+01
     -6.360  0.4174E+01  0.4174E+01  0.9770E+01  0.9770E+01
     -6.314  0.2513E+01  0.2513E+01  0.9885E+01  0.9885E+01
     -6.268  0.1363E+01  0.1363E+01  0.9948E+01  0.9948E+01
     -6.222  0.6654E+00  0.6654E+00  0.9978E+01  0.9978E+01
     -6.176  0.2927E+00  0.2927E+00  0.9992E+01  0.9992E+01
     -6.130  0.1159E+00  0.1159E+00  0.9997E+01  0.9997E+01
     -6.084  0.4136E-01  0.4136E-01  0.9999E+01  0.9999E+01
     -6.038  0.1329E-01  0.1329E-01  0.1000E+02  0.1000E+02
     -5.992  0.3846E-02  0.3846E-02  0.1000E+02  0.1000E+02
     -5.946  0.1002E-02  0.1002E-02  0.1000E+02  0.1000E+02
     -5.900  0.2353E-03  0.2353E-03  0.1000E+02  0.1000E+02
     -5.854  0.4973E-04  0.4973E-04  0.1000E+02  0.1000E+02
     -5.808  0.9468E-05  0.9468E-05  0.1000E+02  0.1000E+02
     -5.762  0.1623E-05  0.1623E-05  0.1000E+02  0.1000E+02
     -5.717  0.2506E-06  0.2506E-06  0.1000E+02  0.1000E+02
     -5.671  0.3484E-07  0.3484E-07  0.1000E+02  0.1000E+02
     -5.625  0.4362E-08  0.4362E-08  0.1000E+02  0.1000E+02
     -5.579  0.4918E-09  0.4918E-09  0.1000E+02  0.1000E+02
     -5.533  0.4994E-10  0.4994E-10  0.1000E+02  0.1000E+02
     -5.487  0.4562E-11  0.4562E-11  0.1000E+02  0.1000E+02
     -5.441  0.3770E-12  0.3770E-12  0.1000E+02  0.1000E+02
     -5.395  0.2900E-13  0.2900E-13  0.1000E+02  0.1000E+02
     -5.349  0.0000E+00  0.0000E+00  0.1000E+02  0.1000E+02
     -5.303  0.0000E+00  0.0000E+00  0.1000E+02  0.1000E+02
     -5.257  0.0000E+00  0.0000E+00  0.1000E+02  0.1000E+02
     -5.211  0.0000E+00  0.0000E+00  0.1000E+02  0.1000E+02
     -5.165  0.0000E+00  0.0000E+00  0.1000E+02  0.1000E+02
     -5.119  0.0000E+00  0.0000E+00  0.1000E+02  0.1000E+02
     -5.073  0.0000E+00  0.0000E+00  0.1000E+02  0.1000E+02
     -5.027  0.0000E+00  0.0000E+00  0.1000E+02  0.1000E+02
     -4.981  0.0000E+00  0.0000E+00  0.1000E+02  0.1000E+02
     -4.935  0.0000E+00  0.0000E+00  0.1000E+02  0.1000E+02
     -4.890  0.0000E+00  0.0000E+00  0.1000E+02  0.1000E+02
     -4.844  0.0000E+00  0.0000E+00  0.1000E+02  0.1000E+02
     -4.798  0.2900E-13  0.2900E-13  0.1000E+02  0.1000E+02
     -4.752  0.3721E-12  0.3721E-12  0.1000E+02  0.1000E+02
     -4.706  0.4533E-11  0.4533E-11  0.1000E+02  0.1000E+02
     -4.660  0.4958E-10  0.4958E-10  0.1000E+02  0.1000E+02
     -4.614  0.4885E-09  0.4885E-09  0.1000E+02  0.1000E+02
     -4.568  0.4334E-08  0.4334E-08  0.1000E+02  0.1000E+02
     -4.522  0.3463E-07  0.3463E-07  0.1000E+02  0.1000E+02
     -4.476  0.2491E-06  0.2491E-06  0.1000E+02  0.1000E+02
     -4.430  0.1614E-05  0.1614E-05  0.1000E+02  0.1000E+02
     -4.384  0.9419E-05  0.9419E-05  0.1000E+02  0.1000E+02
     -4.338  0.4950E-04  0.4949E-04  0.1000E+02  0.1000E+02
     -4.292  0.2342E-03  0.2342E-03  0.1000E+02  0.1000E+02
     -4.246  0.9982E-03  0.9982E-03  0.1000E+02  0.1000E+02
     -4.200  0.3831E-02  0.3831E-02  0.1000E+02  0.1000E+02
     -4.154  0.1324E-01  0.1324E-01  0.1000E+02  0.1000E+02
     -4.109  0.4123E-01  0.4123E-01  0.1000E+02  0.1000E+02
     -4.063  0.1156E+00  0.1156E+00  0.1001E+02  0.1001E+02
     -4.017  0.2919E+00  0.2919E+00  0.1002E+02  0.1002E+02
     -3.971  0.6639E+00  0.6639E+00  0.1005E+02  0.1005E+02
     -3.925  0.1360E+01  0.1360E+01  0.1011E+02  0.1011E+02
     -3.879  0.2509E+01  0.2509E+01  0.1023E+02  0.1023E+02
     -3.833  0.4168E+01  0.4168E+01  0.1042E+02  0.1042E+02
     -3.787  0.6238E+01  0.6238E+01  0.1071E+02  0.1071E+02
     -3.741  0.8408E+01  0.8408E+01  0.1109E+02  0.1109E+02
     -3.695  0.1021E+02  0.1021E+02  0.1156E+02  0.1156E+02
     -3.649  0.1116E+02  0.1116E+02  0.1208E+02  0.1208E+02
     -3.603  0.1099E+02  0.1099E+02  0.1258E+02  0.1258E+02
     -3.557  0.9749E+01  0.9749E+01  0.1303E+02  0.1303E+02
     -3.511  0.7789E+01  0.7789E+01  0.1339E+02  0.1339E+02
     -3.465  0.5604E+01  0.5604E+01  0.1364E+02  0.1364E+02
     -3.419  0.3632E+01  0.3632E+01  0.1381E+02  0.1381E+02
     -3.373  0.2120E+01  0.2120E+01  0.1391E+02  0.1391E+02
     -3.327  0.1114E+01  0.1114E+01  0.1396E+02  0.1396E+02
     -3.282  0.5276E+00  0.5277E+00  0.1398E+02  0.1398E+02
     -3.236  0.2250E+00  0.2250E+00  0.1399E+02  0.1399E+02
     -3.190  0.8642E-01  0.8642E-01  0.1400E+02  0.1400E+02
     -3.144  0.2989E-01  0.2989E-01  0.1400E+02  0.1400E+02
     -3.098  0.9312E-02  0.9312E-02  0.1400E+02  0.1400E+02
     -3.052  0.2613E-02  0.2613E-02  0.1400E+02  0.1400E+02
     -3.006  0.6601E-03  0.6602E-03  0.1400E+02  0.1400E+02
     -2.960  0.1502E-03  0.1502E-03  0.1400E+02  0.1400E+02
     -2.914  0.3079E-04  0.3079E-04  0.1400E+02  0.1400E+02
     -2.868  0.5682E-05  0.5682E-05  0.1400E+02  0.1400E+02
     -2.822  0.9444E-06  0.9444E-06  0.1400E+02  0.1400E+02
     -2.776  0.1414E-06  0.1414E-06  0.1400E+02  0.1400E+02
     -2.730  0.1905E-07  0.1905E-07  0.1400E+02  0.1400E+02
     -2.684  0.2313E-08  0.2313E-08  0.1400E+02  0.1400E+02
     -2.638  0.2530E-09  0.2530E-09  0.1400E+02  0.1400E+02
     -2.592  0.2753E-10  0.2753E-10  0.1400E+02  0.1400E+02
     -2.546  0.3097E-10  0.3097E-10  0.1400E+02  0.1400E+02
     -2.501  0.2817E-09  0.2817E-09  0.1400E+02  0.1400E+02
     -2.455  0.2481E-08  0.2481E-08  0.1400E+02  0.1400E+02
     -2.409  0.1969E-07  0.1969E-07  0.1400E+02  0.1400E+02
     -2.363  0.1407E-06  0.1407E-06  0.1400E+02  0.1400E+02
     -2.317  0.9058E-06  0.9058E-06  0.1400E+02  0.1400E+02
     -2.271  0.5250E-05  0.5250E-05  0.1400E+02  0.1400E+02
     -2.225  0.2741E-04  0.2740E-04  0.1400E+02  0.1400E+02
     -2.179  0.1288E-03  0.1288E-03  0.1400E+02  0.1400E+02
     -2.133  0.5454E-03  0.5454E-03  0.1400E+02  0.1400E+02
     -2.087  0.2079E-02  0.2079E-02  0.1400E+02  0.1400E+02
     -2.041  0.7140E-02  0.7140E-02  0.1400E+02  0.1400E+02
     -1.995  0.2208E-01  0.2208E-01  0.1400E+02  0.1400E+02
     -1.949  0.6150E-01  0.6150E-01  0.1400E+02  0.1400E+02
     -1.903  0.1543E+00  0.1543E+00  0.1401E+02  0.1401E+02
     -1.857  0.3485E+00  0.3485E+00  0.1403E+02  0.1403E+02
     -1.811  0.7092E+00  0.7091E+00  0.1406E+02  0.1406E+02
     -1.765  0.1300E+01  0.1300E+01  0.1412E+02  0.1412E+02
     -1.719  0.2145E+01  0.2145E+01  0.1422E+02  0.1422E+02
     -1.674  0.3189E+01  0.3189E+01  0.1436E+02  0.1436E+02
     -1.628  0.4270E+01  0.4270E+01  0.1456E+02  0.1456E+02
     -1.582  0.5149E+01  0.5149E+01  0.1480E+02  0.1480E+02
     -1.536  0.5593E+01  0.5593E+01  0.1505E+02  0.1505E+02
     -1.490  0.5471E+01  0.5471E+01  0.1531E+02  0.1531E+02
     -1.444  0.4821E+01  0.4821E+01  0.1553E+02  0.1553E+02
     -1.398  0.3826E+01  0.3826E+01  0.1570E+02  0.1570E+02
     -1.352  0.2734E+01  0.2734E+01  0.1583E+02  0.1583E+02
     -1.306  0.1760E+01  0.1760E+01  0.1591E+02  0.1591E+02
     -1.260  0.1021E+01  0.1021E+01  0.1596E+02  0.1596E+02
     -1.214  0.5330E+00  0.5330E+00  0.1598E+02  0.1598E+02
     -1.168  0.2507E+00  0.2507E+00  0.1599E+02  0.1599E+02
     -1.122  0.1062E+00  0.1062E+00  0.1600E+02  0.1600E+02
     -1.076  0.4051E-01  0.4051E-01  0.1600E+02  0.1600E+02
     -1.030  0.1392E-01  0.1392E-01  0.1600E+02  0.1600E+02
     -0.984  0.4308E-02  0.4308E-02  0.1600E+02  0.1600E+02
     -0.938  0.1201E-02  0.1202E-02  0.1600E+02  0.1600E+02
     -0.893  0.3069E-03  0.3070E-03  0.1600E+02  0.1600E+02
     -0.847  0.9901E-04  0.9917E-04  0.1600E+02  0.1600E+02
     -0.801  0.1674E-03  0.1682E-03  0.1600E+02  0.1600E+02
     -0.755  0.6902E-03  0.6938E-03  0.1600E+02  0.1600E+02
     -0.709  0.2776E-02  0.2791E-02  0.1600E+02  0.1600E+02
     -0.663  0.1010E-01  0.1015E-01  0.1600E+02  0.1600E+02
     -0.617  0.3312E-01  0.3329E-01  0.1600E+02  0.1600E+02
     -0.571  0.9791E-01  0.9841E-01  0.1601E+02  0.1601E+02
     -0.525  0.2609E+00  0.2622E+00  0.1602E+02  0.1602E+02
     -0.479  0.6268E+00  0.6298E+00  0.1605E+02  0.1605E+02
     -0.433  0.1358E+01  0.1364E+01  0.1611E+02  0.1611E+02
     -0.387  0.2651E+01  0.2662E+01  0.1623E+02  0.1623E+02
     -0.341  0.4668E+01  0.4685E+01  0.1645E+02  0.1645E+02
     -0.295  0.7411E+01  0.7435E+01  0.1679E+02  0.1679E+02
     -0.249  0.1061E+02  0.1064E+02  0.1727E+02  0.1728E+02
     -0.203  0.1370E+02  0.1372E+02  0.1790E+02  0.1791E+02
     -0.157  0.1595E+02  0.1597E+02  0.1864E+02  0.1864E+02
     -0.112  0.1674E+02  0.1675E+02  0.1941E+02  0.1941E+02
     -0.066  0.1585E+02  0.1585E+02  0.2013E+02  0.2014E+02
     -0.020  0.1354E+02  0.1352E+02  0.2076E+02  0.2076E+02
      0.026  0.1043E+02  0.1040E+02  0.2123E+02  0.2124E+02
      0.072  0.7251E+01  0.7223E+01  0.2157E+02  0.2157E+02
      0.118  0.4552E+01  0.4529E+01  0.2178E+02  0.2178E+02
      0.164  0.2599E+01  0.2584E+01  0.2190E+02  0.2190E+02
      0.210  0.1393E+01  0.1388E+01  0.2196E+02  0.2196E+02
      0.256  0.8051E+00  0.8118E+00  0.2200E+02  0.2200E+02
      0.302  0.6931E+00  0.7145E+00  0.2203E+02  0.2203E+02
      0.348  0.9655E+00  0.1005E+01  0.2207E+02  0.2208E+02
      0.394  0.1577E+01  0.1636E+01  0.2215E+02  0.2215E+02
      0.440  0.2475E+01  0.2551E+01  0.2226E+02  0.2227E+02
      0.486  0.3546E+01  0.3627E+01  0.2242E+02  0.2244E+02
      0.532  0.4588E+01  0.4657E+01  0.2263E+02  0.2265E+02
      0.578  0.5349E+01  0.5387E+01  0.2288E+02  0.2290E+02
      0.624  0.5617E+01  0.5614E+01  0.2314E+02  0.2316E+02
      0.670  0.5313E+01  0.5269E+01  0.2338E+02  0.2340E+02
      0.715  0.4526E+01  0.4454E+01  0.2359E+02  0.2360E+02
      0.761  0.3472E+01  0.3391E+01  0.2375E+02  0.2376E+02
      0.807  0.2400E+01  0.2325E+01  0.2386E+02  0.2387E+02
      0.853  0.1494E+01  0.1436E+01  0.2393E+02  0.2393E+02
      0.899  0.8373E+00  0.7990E+00  0.2397E+02  0.2397E+02
      0.945  0.4227E+00  0.4003E+00  0.2399E+02  0.2399E+02
      0.991  0.1922E+00  0.1806E+00  0.2399E+02  0.2399E+02
      1.037  0.7873E-01  0.7341E-01  0.2400E+02  0.2400E+02
      1.083  0.2904E-01  0.2687E-01  0.2400E+02  0.2400E+02
      1.129  0.9647E-02  0.8857E-02  0.2400E+02  0.2400E+02
      1.175  0.2886E-02  0.2630E-02  0.2400E+02  0.2400E+02
      1.221  0.7777E-03  0.7031E-03  0.2400E+02  0.2400E+02
      1.267  0.1887E-03  0.1693E-03  0.2400E+02  0.2400E+02
      1.313  0.4124E-04  0.3672E-04  0.2400E+02  0.2400E+02
      1.359  0.8118E-05  0.7171E-05  0.2400E+02  0.2400E+02
      1.405  0.1439E-05  0.1261E-05  0.2400E+02  0.2400E+02
      1.451  0.2297E-06  0.1998E-06  0.2400E+02  0.2400E+02
      1.496  0.3301E-07  0.2850E-07  0.2400E+02  0.2400E+02
      1.542  0.4273E-08  0.3660E-08  0.2400E+02  0.2400E+02
      1.588  0.4982E-09  0.4234E-09  0.2400E+02  0.2400E+02
      1.634  0.5229E-10  0.4410E-10  0.2400E+02  0.2400E+02
      1.680  0.4944E-11  0.4137E-11  0.2400E+02  0.2400E+02
      1.726  0.4205E-12  0.3480E-12  0.2400E+02  0.2400E+02
      1.772  0.3383E-13  0.2900E-13  0.2400E+02  0.2400E+02
      1.818  0.0000E+00  0.0000E+00  0.2400E+02  0.2400E+02
      1.864  0.0000E+00  0.0000E+00  0.2400E+02  0.2400E+02
      1.910  0.0000E+00  0.0000E+00  0.2400E+02  0.2400E+02
      1.956  0.0000E+00  0.0000E+00  0.2400E+02  0.2400E+02
      2.002  0.0000E+00  0.0000E+00  0.2400E+02  0.2400E+02
      2.048  0.0000E+00  0.0000E+00  0.2400E+02  0.2400E+02
      2.094  0.0000E+00  0.0000E+00  0.2400E+02  0.2400E+02
      2.140  0.0000E+00  0.0000E+00  0.2400E+02  0.2400E+02
      2.186  0.0000E+00  0.0000E+00  0.2400E+02  0.2400E+02
      2.232  0.0000E+00  0.0000E+00  0.2400E+02  0.2400E+02
      2.278  0.0000E+00  0.0000E+00  0.2400E+02  0.2400E+02
      2.323  0.0000E+00  0.0000E+00  0.2400E+02  0.2400E+02
      2.369  0.0000E+00  0.0000E+00  0.2400E+02  0.2400E+02
      2.415  0.0000E+00  0.0000E+00  0.2400E+02  0.2400E+02
      2.461  0.0000E+00  0.0000E+00  0.2400E+02  0.2400E+02
      2.507  0.0000E+00  0.0000E+00  0.2400E+02  0.2400E+02
      2.553  0.0000E+00  0.0000E+00  0.2400E+02  0.2400E+02
      2.599  0.0000E+00  0.0000E+00  0.2400E+02  0.2400E+02
