    8    8    1    2
  0.4050000E+03  0.1500000E-08  0.1500000E-08  0.1440000E-08  0.5000000E-15
  1.000000000000000E-004
  CAR 
 unknown system                          
      8      1     12
 
  0.0000000E+00  0.0000000E+00  0.0000000E+00  0.1000000E+01
    1       -9.183717     -9.183717   1.000000   1.000000
    2       -8.520020     -8.520019   1.000000   1.000000
    3       -8.520020     -8.520019   1.000000   1.000000
    4       -6.582575     -6.582574   0.500000   0.500000
    5       -6.582575     -6.582574   0.500000   0.500000
    6       -3.655821     -3.655820   0.000000   0.000000
    7       -3.655821     -3.655820   0.000000   0.000000
    8       -1.545375     -1.545374   0.000000   0.000000
    9       -0.147083     -0.147055   0.000000   0.000000
   10       -0.147083     -0.147055   0.000000   0.000000
   11       -0.112865     -0.114125   0.000000   0.000000
   12        0.599125      0.595737   0.000000   0.000000
