       N       E                     dE             d eps       ncg     rms          rms(c)
DAV:   1     0.171628995898E+02    0.17163E+02   -0.95968E+02    48   0.188E+02
DAV:   2    -0.997399317686E+01   -0.27137E+02   -0.26985E+02    80   0.546E+01
DAV:   3    -0.124559860581E+02   -0.24820E+01   -0.23357E+01    64   0.221E+01
DAV:   4    -0.125829710852E+02   -0.12699E+00   -0.11468E+00    64   0.385E+00
DAV:   5    -0.125845607070E+02   -0.15896E-02   -0.15872E-02    48   0.483E-01    0.127E+00
DAV:   6    -0.126191961194E+02   -0.34635E-01   -0.70788E-03    80   0.483E-01    0.793E-01
DAV:   7    -0.126493304585E+02   -0.30134E-01   -0.18142E-02    48   0.751E-01    0.582E-02
DAV:   8    -0.126507928760E+02   -0.14624E-02   -0.32758E-04    80   0.835E-02    0.209E-02
DAV:   9    -0.126513951341E+02   -0.60226E-03   -0.13590E-04    56   0.545E-02    0.127E-02
DAV:  10    -0.126516405653E+02   -0.24543E-03   -0.32051E-05    64   0.238E-02    0.859E-03
DAV:  11    -0.126518072111E+02   -0.16665E-03   -0.43103E-05    56   0.248E-02    0.400E-03
DAV:  12    -0.126519314281E+02   -0.12422E-03   -0.87217E-06    48   0.112E-02    0.318E-03
DAV:  13    -0.126521586784E+02   -0.22725E-03   -0.12745E-05    48   0.113E-02    0.134E-03
DAV:  14    -0.126522769586E+02   -0.11828E-03   -0.58030E-06    48   0.792E-03    0.142E-03
DAV:  15    -0.126523442001E+02   -0.67241E-04   -0.24717E-06    48   0.557E-03    0.506E-04
DAV:  16    -0.126523697306E+02   -0.25531E-04   -0.86876E-07    32   0.359E-03    0.365E-04
DAV:  17    -0.126523763727E+02   -0.66421E-05   -0.98191E-08    40   0.137E-03    0.199E-04
DAV:  18    -0.126523796917E+02   -0.33190E-05   -0.49967E-08    32   0.988E-04    0.552E-05
DAV:  19    -0.126523801309E+02   -0.43924E-06   -0.66879E-09    36   0.438E-04
   1 F= -.12652380E+02 E0= -.12539542E+02  d E =-.225676E+00  mag=    -0.0000
