   8   8   0   0
  0.2475000E+03  0.1500000E-08  0.1500000E-08  0.8800000E-09  0.5000000E-15
  1.000000000000000E-004
  CAR 
 unknown system                          
      2.93700326    -14.51924787  301     -4.88971132      1.00000000
    -14.519  0.0000E+00  0.0000E+00  0.0000E+00  0.0000E+00
    -14.461  0.0000E+00  0.0000E+00  0.0000E+00  0.0000E+00
    -14.403  0.0000E+00  0.0000E+00  0.0000E+00  0.0000E+00
    -14.345  0.0000E+00  0.0000E+00  0.0000E+00  0.0000E+00
    -14.286  0.0000E+00  0.0000E+00  0.0000E+00  0.0000E+00
    -14.228  0.0000E+00  0.0000E+00  0.0000E+00  0.0000E+00
    -14.170  0.0000E+00  0.0000E+00  0.0000E+00  0.0000E+00
    -14.112  0.0000E+00  0.0000E+00  0.0000E+00  0.0000E+00
    -14.054  0.0000E+00  0.0000E+00  0.0000E+00  0.0000E+00
    -13.996  0.0000E+00  0.0000E+00  0.0000E+00  0.0000E+00
    -13.937  0.0000E+00  0.0000E+00  0.0000E+00  0.0000E+00
    -13.879  0.0000E+00  0.0000E+00  0.0000E+00  0.0000E+00
    -13.821  0.0000E+00  0.0000E+00  0.0000E+00  0.0000E+00
    -13.763  0.0000E+00  0.0000E+00  0.0000E+00  0.0000E+00
    -13.705  0.0000E+00  0.0000E+00  0.0000E+00  0.0000E+00
    -13.646  0.2671E-13  0.2671E-13  0.1554E-14  0.1554E-14
    -13.588  0.6716E-12  0.6716E-12  0.4063E-13  0.4063E-13
    -13.530  0.1449E-10  0.1449E-10  0.8835E-12  0.8836E-12
    -13.472  0.2645E-09  0.2645E-09  0.1627E-10  0.1627E-10
    -13.414  0.4083E-08  0.4083E-08  0.2538E-09  0.2538E-09
    -13.355  0.5331E-07  0.5331E-07  0.3356E-08  0.3356E-08
    -13.297  0.5886E-06  0.5887E-06  0.3761E-07  0.3761E-07
    -13.239  0.5498E-05  0.5498E-05  0.3575E-06  0.3575E-06
    -13.181  0.4344E-04  0.4344E-04  0.2885E-05  0.2885E-05
    -13.123  0.2903E-03  0.2903E-03  0.1978E-04  0.1978E-04
    -13.065  0.1641E-02  0.1641E-02  0.1153E-03  0.1153E-03
    -13.006  0.7851E-02  0.7851E-02  0.5721E-03  0.5721E-03
    -12.948  0.3177E-01  0.3177E-01  0.2421E-02  0.2421E-02
    -12.890  0.1088E+00  0.1088E+00  0.8752E-02  0.8752E-02
    -12.832  0.3152E+00  0.3152E+00  0.2709E-01  0.2709E-01
    -12.774  0.7729E+00  0.7729E+00  0.7207E-01  0.7207E-01
    -12.715  0.1603E+01  0.1603E+01  0.1654E+00  0.1654E+00
    -12.657  0.2815E+01  0.2815E+01  0.3292E+00  0.3292E+00
    -12.599  0.4182E+01  0.4182E+01  0.5725E+00  0.5725E+00
    -12.541  0.5258E+01  0.5258E+01  0.8785E+00  0.8785E+00
    -12.483  0.5595E+01  0.5595E+01  0.1204E+01  0.1204E+01
    -12.424  0.5038E+01  0.5038E+01  0.1497E+01  0.1497E+01
    -12.366  0.3839E+01  0.3839E+01  0.1720E+01  0.1720E+01
    -12.308  0.2475E+01  0.2475E+01  0.1865E+01  0.1865E+01
    -12.250  0.1351E+01  0.1351E+01  0.1943E+01  0.1943E+01
    -12.192  0.6238E+00  0.6238E+00  0.1979E+01  0.1979E+01
    -12.134  0.2438E+00  0.2438E+00  0.1994E+01  0.1994E+01
    -12.075  0.8060E-01  0.8060E-01  0.1998E+01  0.1998E+01
    -12.017  0.2255E-01  0.2255E-01  0.2000E+01  0.2000E+01
    -11.959  0.5338E-02  0.5338E-02  0.2000E+01  0.2000E+01
    -11.901  0.1069E-02  0.1069E-02  0.2000E+01  0.2000E+01
    -11.843  0.1811E-03  0.1811E-03  0.2000E+01  0.2000E+01
    -11.784  0.2596E-04  0.2596E-04  0.2000E+01  0.2000E+01
    -11.726  0.3148E-05  0.3148E-05  0.2000E+01  0.2000E+01
    -11.668  0.3229E-06  0.3229E-06  0.2000E+01  0.2000E+01
    -11.610  0.2805E-07  0.2805E-07  0.2000E+01  0.2000E+01
    -11.552  0.2818E-08  0.2818E-08  0.2000E+01  0.2000E+01
    -11.493  0.1165E-07  0.1165E-07  0.2000E+01  0.2000E+01
    -11.435  0.1472E-06  0.1472E-06  0.2000E+01  0.2000E+01
    -11.377  0.1591E-05  0.1591E-05  0.2000E+01  0.2000E+01
    -11.319  0.1454E-04  0.1454E-04  0.2000E+01  0.2000E+01
    -11.261  0.1124E-03  0.1124E-03  0.2000E+01  0.2000E+01
    -11.203  0.7348E-03  0.7348E-03  0.2000E+01  0.2000E+01
    -11.144  0.4065E-02  0.4065E-02  0.2000E+01  0.2000E+01
    -11.086  0.1902E-01  0.1902E-01  0.2001E+01  0.2001E+01
    -11.028  0.7533E-01  0.7533E-01  0.2006E+01  0.2006E+01
    -10.970  0.2524E+00  0.2524E+00  0.2020E+01  0.2020E+01
    -10.912  0.7155E+00  0.7155E+00  0.2062E+01  0.2062E+01
    -10.853  0.1716E+01  0.1716E+01  0.2162E+01  0.2162E+01
    -10.795  0.3484E+01  0.3484E+01  0.2365E+01  0.2365E+01
    -10.737  0.5985E+01  0.5985E+01  0.2713E+01  0.2713E+01
    -10.679  0.8700E+01  0.8700E+01  0.3219E+01  0.3219E+01
    -10.621  0.1070E+02  0.1070E+02  0.3842E+01  0.3842E+01
    -10.562  0.1114E+02  0.1114E+02  0.4490E+01  0.4490E+01
    -10.504  0.9817E+01  0.9817E+01  0.5061E+01  0.5061E+01
    -10.446  0.7319E+01  0.7319E+01  0.5487E+01  0.5487E+01
    -10.388  0.4618E+01  0.4618E+01  0.5756E+01  0.5756E+01
    -10.330  0.2466E+01  0.2466E+01  0.5900E+01  0.5900E+01
    -10.272  0.1114E+01  0.1114E+01  0.5964E+01  0.5964E+01
    -10.213  0.4260E+00  0.4260E+00  0.5989E+01  0.5989E+01
    -10.155  0.1378E+00  0.1378E+00  0.5997E+01  0.5997E+01
    -10.097  0.3773E-01  0.3773E-01  0.5999E+01  0.5999E+01
    -10.039  0.8738E-02  0.8738E-02  0.6000E+01  0.6000E+01
     -9.981  0.1712E-02  0.1712E-02  0.6000E+01  0.6000E+01
     -9.922  0.2839E-03  0.2839E-03  0.6000E+01  0.6000E+01
     -9.864  0.3981E-04  0.3981E-04  0.6000E+01  0.6000E+01
     -9.806  0.4723E-05  0.4723E-05  0.6000E+01  0.6000E+01
     -9.748  0.4739E-06  0.4739E-06  0.6000E+01  0.6000E+01
     -9.690  0.4022E-07  0.4022E-07  0.6000E+01  0.6000E+01
     -9.631  0.2887E-08  0.2887E-08  0.6000E+01  0.6000E+01
     -9.573  0.1753E-09  0.1753E-09  0.6000E+01  0.6000E+01
     -9.515  0.8998E-11  0.8998E-11  0.6000E+01  0.6000E+01
     -9.457  0.3892E-12  0.3892E-12  0.6000E+01  0.6000E+01
     -9.399  0.1526E-13  0.1526E-13  0.6000E+01  0.6000E+01
     -9.341  0.0000E+00  0.0000E+00  0.6000E+01  0.6000E+01
     -9.282  0.0000E+00  0.0000E+00  0.6000E+01  0.6000E+01
     -9.224  0.0000E+00  0.0000E+00  0.6000E+01  0.6000E+01
     -9.166  0.0000E+00  0.0000E+00  0.6000E+01  0.6000E+01
     -9.108  0.0000E+00  0.0000E+00  0.6000E+01  0.6000E+01
     -9.050  0.0000E+00  0.0000E+00  0.6000E+01  0.6000E+01
     -8.991  0.0000E+00  0.0000E+00  0.6000E+01  0.6000E+01
     -8.933  0.0000E+00  0.0000E+00  0.6000E+01  0.6000E+01
     -8.875  0.0000E+00  0.0000E+00  0.6000E+01  0.6000E+01
     -8.817  0.0000E+00  0.0000E+00  0.6000E+01  0.6000E+01
     -8.759  0.0000E+00  0.0000E+00  0.6000E+01  0.6000E+01
     -8.700  0.0000E+00  0.0000E+00  0.6000E+01  0.6000E+01
     -8.642  0.0000E+00  0.0000E+00  0.6000E+01  0.6000E+01
     -8.584  0.0000E+00  0.0000E+00  0.6000E+01  0.6000E+01
     -8.526  0.0000E+00  0.0000E+00  0.6000E+01  0.6000E+01
     -8.468  0.0000E+00  0.0000E+00  0.6000E+01  0.6000E+01
     -8.410  0.0000E+00  0.0000E+00  0.6000E+01  0.6000E+01
     -8.351  0.0000E+00  0.0000E+00  0.6000E+01  0.6000E+01
     -8.293  0.0000E+00  0.0000E+00  0.6000E+01  0.6000E+01
     -8.235  0.0000E+00  0.0000E+00  0.6000E+01  0.6000E+01
     -8.177  0.0000E+00  0.0000E+00  0.6000E+01  0.6000E+01
     -8.119  0.0000E+00  0.0000E+00  0.6000E+01  0.6000E+01
     -8.060  0.0000E+00  0.0000E+00  0.6000E+01  0.6000E+01
     -8.002  0.0000E+00  0.0000E+00  0.6000E+01  0.6000E+01
     -7.944  0.0000E+00  0.0000E+00  0.6000E+01  0.6000E+01
     -7.886  0.0000E+00  0.0000E+00  0.6000E+01  0.6000E+01
     -7.828  0.0000E+00  0.0000E+00  0.6000E+01  0.6000E+01
     -7.769  0.0000E+00  0.0000E+00  0.6000E+01  0.6000E+01
     -7.711  0.0000E+00  0.0000E+00  0.6000E+01  0.6000E+01
     -7.653  0.0000E+00  0.0000E+00  0.6000E+01  0.6000E+01
     -7.595  0.0000E+00  0.0000E+00  0.6000E+01  0.6000E+01
     -7.537  0.0000E+00  0.0000E+00  0.6000E+01  0.6000E+01
     -7.479  0.0000E+00  0.0000E+00  0.6000E+01  0.6000E+01
     -7.420  0.0000E+00  0.0000E+00  0.6000E+01  0.6000E+01
     -7.362  0.0000E+00  0.0000E+00  0.6000E+01  0.6000E+01
     -7.304  0.0000E+00  0.0000E+00  0.6000E+01  0.6000E+01
     -7.246  0.0000E+00  0.0000E+00  0.6000E+01  0.6000E+01
     -7.188  0.0000E+00  0.0000E+00  0.6000E+01  0.6000E+01
     -7.129  0.0000E+00  0.0000E+00  0.6000E+01  0.6000E+01
     -7.071  0.0000E+00  0.0000E+00  0.6000E+01  0.6000E+01
     -7.013  0.0000E+00  0.0000E+00  0.6000E+01  0.6000E+01
     -6.955  0.0000E+00  0.0000E+00  0.6000E+01  0.6000E+01
     -6.897  0.0000E+00  0.0000E+00  0.6000E+01  0.6000E+01
     -6.838  0.0000E+00  0.0000E+00  0.6000E+01  0.6000E+01
     -6.780  0.0000E+00  0.0000E+00  0.6000E+01  0.6000E+01
     -6.722  0.0000E+00  0.0000E+00  0.6000E+01  0.6000E+01
     -6.664  0.0000E+00  0.0000E+00  0.6000E+01  0.6000E+01
     -6.606  0.0000E+00  0.0000E+00  0.6000E+01  0.6000E+01
     -6.548  0.0000E+00  0.0000E+00  0.6000E+01  0.6000E+01
     -6.489  0.0000E+00  0.0000E+00  0.6000E+01  0.6000E+01
     -6.431  0.0000E+00  0.0000E+00  0.6000E+01  0.6000E+01
     -6.373  0.0000E+00  0.0000E+00  0.6000E+01  0.6000E+01
     -6.315  0.0000E+00  0.0000E+00  0.6000E+01  0.6000E+01
     -6.257  0.0000E+00  0.0000E+00  0.6000E+01  0.6000E+01
     -6.198  0.0000E+00  0.0000E+00  0.6000E+01  0.6000E+01
     -6.140  0.0000E+00  0.0000E+00  0.6000E+01  0.6000E+01
     -6.082  0.0000E+00  0.0000E+00  0.6000E+01  0.6000E+01
     -6.024  0.3816E-13  0.3816E-13  0.6000E+01  0.6000E+01
     -5.966  0.9158E-12  0.9158E-12  0.6000E+01  0.6000E+01
     -5.907  0.2023E-10  0.2023E-10  0.6000E+01  0.6000E+01
     -5.849  0.3768E-09  0.3768E-09  0.6000E+01  0.6000E+01
     -5.791  0.5934E-08  0.5935E-08  0.6000E+01  0.6000E+01
     -5.733  0.7905E-07  0.7905E-07  0.6000E+01  0.6000E+01
     -5.675  0.8907E-06  0.8907E-06  0.6000E+01  0.6000E+01
     -5.617  0.8487E-05  0.8488E-05  0.6000E+01  0.6000E+01
     -5.558  0.6841E-04  0.6842E-04  0.6000E+01  0.6000E+01
     -5.500  0.4665E-03  0.4665E-03  0.6000E+01  0.6000E+01
     -5.442  0.2691E-02  0.2691E-02  0.6000E+01  0.6000E+01
     -5.384  0.1313E-01  0.1313E-01  0.6001E+01  0.6001E+01
     -5.326  0.5422E-01  0.5422E-01  0.6004E+01  0.6004E+01
     -5.267  0.1894E+00  0.1894E+00  0.6015E+01  0.6015E+01
     -5.209  0.5599E+00  0.5599E+00  0.6048E+01  0.6048E+01
     -5.151  0.1400E+01  0.1400E+01  0.6129E+01  0.6129E+01
     -5.093  0.2964E+01  0.2964E+01  0.6302E+01  0.6302E+01
     -5.035  0.5309E+01  0.5309E+01  0.6611E+01  0.6611E+01
     -4.976  0.8047E+01  0.8047E+01  0.7079E+01  0.7079E+01
     -4.918  0.1032E+02  0.1032E+02  0.7679E+01  0.7679E+01
     -4.860  0.1120E+02  0.1120E+02  0.8331E+01  0.8331E+01
     -4.802  0.1029E+02  0.1029E+02  0.8930E+01  0.8930E+01
     -4.744  0.8002E+01  0.8002E+01  0.9396E+01  0.9396E+01
     -4.686  0.5264E+01  0.5264E+01  0.9702E+01  0.9702E+01
     -4.627  0.2931E+01  0.2931E+01  0.9873E+01  0.9873E+01
     -4.569  0.1381E+01  0.1381E+01  0.9953E+01  0.9953E+01
     -4.511  0.5505E+00  0.5505E+00  0.9985E+01  0.9985E+01
     -4.453  0.1857E+00  0.1857E+00  0.9996E+01  0.9996E+01
     -4.395  0.5300E-01  0.5300E-01  0.9999E+01  0.9999E+01
     -4.336  0.1280E-01  0.1280E-01  0.1000E+02  0.1000E+02
     -4.278  0.2616E-02  0.2615E-02  0.1000E+02  0.1000E+02
     -4.220  0.4521E-03  0.4521E-03  0.1000E+02  0.1000E+02
     -4.162  0.6612E-04  0.6612E-04  0.1000E+02  0.1000E+02
     -4.104  0.8179E-05  0.8179E-05  0.1000E+02  0.1000E+02
     -4.045  0.8559E-06  0.8559E-06  0.1000E+02  0.1000E+02
     -3.987  0.7575E-07  0.7575E-07  0.1000E+02  0.1000E+02
     -3.929  0.5670E-08  0.5670E-08  0.1000E+02  0.1000E+02
     -3.871  0.3590E-09  0.3590E-09  0.1000E+02  0.1000E+02
     -3.813  0.1922E-10  0.1922E-10  0.1000E+02  0.1000E+02
     -3.755  0.8701E-12  0.8701E-12  0.1000E+02  0.1000E+02
     -3.696  0.3053E-13  0.3053E-13  0.1000E+02  0.1000E+02
     -3.638  0.0000E+00  0.0000E+00  0.1000E+02  0.1000E+02
     -3.580  0.0000E+00  0.0000E+00  0.1000E+02  0.1000E+02
     -3.522  0.0000E+00  0.0000E+00  0.1000E+02  0.1000E+02
     -3.464  0.0000E+00  0.0000E+00  0.1000E+02  0.1000E+02
     -3.405  0.0000E+00  0.0000E+00  0.1000E+02  0.1000E+02
     -3.347  0.0000E+00  0.0000E+00  0.1000E+02  0.1000E+02
     -3.289  0.0000E+00  0.0000E+00  0.1000E+02  0.1000E+02
     -3.231  0.0000E+00  0.0000E+00  0.1000E+02  0.1000E+02
     -3.173  0.0000E+00  0.0000E+00  0.1000E+02  0.1000E+02
     -3.114  0.0000E+00  0.0000E+00  0.1000E+02  0.1000E+02
     -3.056  0.0000E+00  0.0000E+00  0.1000E+02  0.1000E+02
     -2.998  0.0000E+00  0.0000E+00  0.1000E+02  0.1000E+02
     -2.940  0.0000E+00  0.0000E+00  0.1000E+02  0.1000E+02
     -2.882  0.0000E+00  0.0000E+00  0.1000E+02  0.1000E+02
     -2.824  0.0000E+00  0.0000E+00  0.1000E+02  0.1000E+02
     -2.765  0.0000E+00  0.0000E+00  0.1000E+02  0.1000E+02
     -2.707  0.0000E+00  0.0000E+00  0.1000E+02  0.1000E+02
     -2.649  0.0000E+00  0.0000E+00  0.1000E+02  0.1000E+02
     -2.591  0.0000E+00  0.0000E+00  0.1000E+02  0.1000E+02
     -2.533  0.0000E+00  0.0000E+00  0.1000E+02  0.1000E+02
     -2.474  0.0000E+00  0.0000E+00  0.1000E+02  0.1000E+02
     -2.416  0.0000E+00  0.0000E+00  0.1000E+02  0.1000E+02
     -2.358  0.0000E+00  0.0000E+00  0.1000E+02  0.1000E+02
     -2.300  0.0000E+00  0.0000E+00  0.1000E+02  0.1000E+02
     -2.242  0.0000E+00  0.0000E+00  0.1000E+02  0.1000E+02
     -2.183  0.0000E+00  0.0000E+00  0.1000E+02  0.1000E+02
     -2.125  0.0000E+00  0.0000E+00  0.1000E+02  0.1000E+02
     -2.067  0.0000E+00  0.0000E+00  0.1000E+02  0.1000E+02
     -2.009  0.0000E+00  0.0000E+00  0.1000E+02  0.1000E+02
     -1.951  0.0000E+00  0.0000E+00  0.1000E+02  0.1000E+02
     -1.893  0.0000E+00  0.0000E+00  0.1000E+02  0.1000E+02
     -1.834  0.0000E+00  0.0000E+00  0.1000E+02  0.1000E+02
     -1.776  0.0000E+00  0.0000E+00  0.1000E+02  0.1000E+02
     -1.718  0.0000E+00  0.0000E+00  0.1000E+02  0.1000E+02
     -1.660  0.0000E+00  0.0000E+00  0.1000E+02  0.1000E+02
     -1.602  0.0000E+00  0.0000E+00  0.1000E+02  0.1000E+02
     -1.543  0.0000E+00  0.0000E+00  0.1000E+02  0.1000E+02
     -1.485  0.0000E+00  0.0000E+00  0.1000E+02  0.1000E+02
     -1.427  0.0000E+00  0.0000E+00  0.1000E+02  0.1000E+02
     -1.369  0.0000E+00  0.0000E+00  0.1000E+02  0.1000E+02
     -1.311  0.7632E-14  0.7632E-14  0.1000E+02  0.1000E+02
     -1.252  0.2003E-12  0.2003E-12  0.1000E+02  0.1000E+02
     -1.194  0.4812E-11  0.4875E-11  0.1000E+02  0.1000E+02
     -1.136  0.9848E-10  0.9958E-10  0.1000E+02  0.1000E+02
     -1.078  0.1704E-08  0.1722E-08  0.1000E+02  0.1000E+02
     -1.020  0.2495E-07  0.2520E-07  0.1000E+02  0.1000E+02
     -0.962  0.3092E-06  0.3121E-06  0.1000E+02  0.1000E+02
     -0.903  0.3244E-05  0.3271E-05  0.1000E+02  0.1000E+02
     -0.845  0.2880E-04  0.2903E-04  0.1000E+02  0.1000E+02
     -0.787  0.2165E-03  0.2180E-03  0.1000E+02  0.1000E+02
     -0.729  0.1377E-02  0.1387E-02  0.1000E+02  0.1000E+02
     -0.671  0.7422E-02  0.7467E-02  0.1000E+02  0.1000E+02
     -0.612  0.3387E-01  0.3405E-01  0.1000E+02  0.1000E+02
     -0.554  0.1309E+00  0.1315E+00  0.1001E+02  0.1001E+02
     -0.496  0.4283E+00  0.4301E+00  0.1004E+02  0.1004E+02
     -0.438  0.1187E+01  0.1192E+01  0.1010E+02  0.1010E+02
     -0.380  0.2789E+01  0.2797E+01  0.1027E+02  0.1027E+02
     -0.321  0.5548E+01  0.5561E+01  0.1059E+02  0.1059E+02
     -0.263  0.9352E+01  0.9367E+01  0.1113E+02  0.1114E+02
     -0.205  0.1336E+02  0.1337E+02  0.1191E+02  0.1191E+02
     -0.147  0.1616E+02  0.1617E+02  0.1285E+02  0.1285E+02
     -0.089  0.1657E+02  0.1657E+02  0.1382E+02  0.1382E+02
     -0.031  0.1440E+02  0.1439E+02  0.1465E+02  0.1466E+02
      0.028  0.1061E+02  0.1059E+02  0.1527E+02  0.1527E+02
      0.086  0.6628E+01  0.6615E+01  0.1566E+02  0.1566E+02
      0.144  0.3546E+01  0.3537E+01  0.1586E+02  0.1586E+02
      0.202  0.1735E+01  0.1729E+01  0.1596E+02  0.1596E+02
      0.260  0.1096E+01  0.1092E+01  0.1603E+02  0.1603E+02
      0.319  0.1464E+01  0.1460E+01  0.1611E+02  0.1611E+02
      0.377  0.2793E+01  0.2786E+01  0.1628E+02  0.1627E+02
      0.435  0.5016E+01  0.5006E+01  0.1657E+02  0.1657E+02
      0.493  0.7757E+01  0.7746E+01  0.1702E+02  0.1702E+02
      0.551  0.1025E+02  0.1023E+02  0.1761E+02  0.1761E+02
      0.610  0.1166E+02  0.1165E+02  0.1829E+02  0.1829E+02
      0.668  0.1173E+02  0.1173E+02  0.1898E+02  0.1897E+02
      0.726  0.1104E+02  0.1103E+02  0.1962E+02  0.1961E+02
      0.784  0.1058E+02  0.1056E+02  0.2023E+02  0.2023E+02
      0.842  0.1090E+02  0.1088E+02  0.2087E+02  0.2086E+02
      0.900  0.1164E+02  0.1162E+02  0.2155E+02  0.2154E+02
      0.959  0.1182E+02  0.1182E+02  0.2223E+02  0.2223E+02
      1.017  0.1072E+02  0.1074E+02  0.2286E+02  0.2285E+02
      1.075  0.8398E+01  0.8429E+01  0.2335E+02  0.2334E+02
      1.133  0.5614E+01  0.5646E+01  0.2367E+02  0.2367E+02
      1.191  0.3186E+01  0.3210E+01  0.2386E+02  0.2386E+02
      1.250  0.1532E+01  0.1546E+01  0.2395E+02  0.2395E+02
      1.308  0.6234E+00  0.6306E+00  0.2398E+02  0.2398E+02
      1.366  0.2147E+00  0.2176E+00  0.2400E+02  0.2400E+02
      1.424  0.6258E-01  0.6355E-01  0.2400E+02  0.2400E+02
      1.482  0.1543E-01  0.1570E-01  0.2400E+02  0.2400E+02
      1.541  0.3220E-02  0.3283E-02  0.2400E+02  0.2400E+02
      1.599  0.5684E-03  0.5806E-03  0.2400E+02  0.2400E+02
      1.657  0.8488E-04  0.8688E-04  0.2400E+02  0.2400E+02
      1.715  0.1072E-04  0.1100E-04  0.2400E+02  0.2400E+02
      1.773  0.1146E-05  0.1177E-05  0.2400E+02  0.2400E+02
      1.831  0.1036E-06  0.1066E-06  0.2400E+02  0.2400E+02
      1.890  0.7916E-08  0.8166E-08  0.2400E+02  0.2400E+02
      1.948  0.5118E-09  0.5289E-09  0.2400E+02  0.2400E+02
      2.006  0.2798E-10  0.2898E-10  0.2400E+02  0.2400E+02
      2.064  0.1290E-11  0.1343E-11  0.2400E+02  0.2400E+02
      2.122  0.5342E-13  0.5342E-13  0.2400E+02  0.2400E+02
      2.181  0.0000E+00  0.0000E+00  0.2400E+02  0.2400E+02
      2.239  0.0000E+00  0.0000E+00  0.2400E+02  0.2400E+02
      2.297  0.0000E+00  0.0000E+00  0.2400E+02  0.2400E+02
      2.355  0.0000E+00  0.0000E+00  0.2400E+02  0.2400E+02
      2.413  0.0000E+00  0.0000E+00  0.2400E+02  0.2400E+02
      2.472  0.0000E+00  0.0000E+00  0.2400E+02  0.2400E+02
      2.530  0.0000E+00  0.0000E+00  0.2400E+02  0.2400E+02
      2.588  0.0000E+00  0.0000E+00  0.2400E+02  0.2400E+02
      2.646  0.0000E+00  0.0000E+00  0.2400E+02  0.2400E+02
      2.704  0.0000E+00  0.0000E+00  0.2400E+02  0.2400E+02
      2.762  0.0000E+00  0.0000E+00  0.2400E+02  0.2400E+02
      2.821  0.0000E+00  0.0000E+00  0.2400E+02  0.2400E+02
      2.879  0.0000E+00  0.0000E+00  0.2400E+02  0.2400E+02
      2.937  0.0000E+00  0.0000E+00  0.2400E+02  0.2400E+02
