    8    8    1    2
  0.2475000E+03  0.1500000E-08  0.1500000E-08  0.8800000E-09  0.5000000E-15
  1.000000000000000E-004
  CAR 
 unknown system                          
      8      1     12
 
  0.0000000E+00  0.0000000E+00  0.0000000E+00  0.1000000E+01
    1      -12.519248    -12.519248   1.000000   1.000000
    2      -10.606650    -10.606650   1.000000   1.000000
    3      -10.606650    -10.606650   1.000000   1.000000
    4       -4.889711     -4.889711   0.500000   0.500000
    5       -4.889711     -4.889711   0.500000   0.500000
    6       -0.147021     -0.147249   0.000000   0.000000
    7       -0.147021     -0.147249   0.000000   0.000000
    8       -0.120205     -0.120381   0.000000   0.000000
    9        0.577195      0.577117   0.000000   0.000000
   10        0.596996      0.597521   0.000000   0.000000
   11        0.936323      0.937003   0.000000   0.000000
   12        0.936323      0.937003   0.000000   0.000000
