       N       E                     dE             d eps       ncg     rms          rms(c)
DAV:   1     0.366723776382E+01    0.36672E+01   -0.11850E+03    64   0.179E+02
DAV:   2    -0.186353815059E+02   -0.22303E+02   -0.20749E+02    60   0.600E+01
DAV:   3    -0.217666918296E+02   -0.31313E+01   -0.29656E+01    64   0.213E+01
DAV:   4    -0.218384767569E+02   -0.71785E-01   -0.70299E-01    48   0.352E+00
DAV:   5    -0.218393797341E+02   -0.90298E-03   -0.90267E-03    80   0.379E-01    0.390E+00
DAV:   6    -0.214946580438E+02    0.34472E+00   -0.97582E-02    48   0.128E+00    0.233E+00
DAV:   7    -0.212112409786E+02    0.28342E+00   -0.31597E-01    56   0.229E+00    0.288E-01
DAV:   8    -0.212074788870E+02    0.37621E-02   -0.65292E-03    48   0.445E-01    0.100E-01
DAV:   9    -0.212067683706E+02    0.71052E-03   -0.12576E-03    56   0.153E-01    0.490E-02
DAV:  10    -0.212091532832E+02   -0.23849E-02   -0.59890E-04    56   0.110E-01    0.361E-02
DAV:  11    -0.212112368474E+02   -0.20836E-02   -0.18452E-04    48   0.670E-02    0.164E-02
DAV:  12    -0.212148127324E+02   -0.35759E-02   -0.43068E-04    48   0.870E-02    0.105E-02
DAV:  13    -0.212159190964E+02   -0.11064E-02   -0.17227E-04    48   0.528E-02    0.581E-03
DAV:  14    -0.212162759875E+02   -0.35689E-03   -0.24311E-06    48   0.106E-02    0.343E-03
DAV:  15    -0.212166597464E+02   -0.38376E-03   -0.11721E-05    48   0.162E-02    0.190E-03
DAV:  16    -0.212166963578E+02   -0.36611E-04   -0.38120E-07    52   0.383E-03    0.115E-03
DAV:  17    -0.212167467830E+02   -0.50425E-04   -0.79089E-07    48   0.411E-03    0.453E-04
DAV:  18    -0.212167508573E+02   -0.40742E-05   -0.67971E-08    48   0.143E-03    0.275E-04
DAV:  19    -0.212167555090E+02   -0.46517E-05   -0.41976E-08    48   0.104E-03    0.171E-04
DAV:  20    -0.212167585156E+02   -0.30066E-05   -0.26238E-08    48   0.110E-03    0.976E-05
DAV:  21    -0.212167592265E+02   -0.71091E-06   -0.29762E-09    52   0.319E-04
   1 F= -.21216759E+02 E0= -.21103921E+02  d E =-.225676E+00  mag=     0.0000
