<?xml version="1.0" encoding="ISO-8859-1"?>
<modeling>
 <generator>
  <i name="program" type="string">vasp </i>
  <i name="version" type="string">5.4.4.18Apr17-6-g9f103f2a35  </i>
  <i name="subversion" type="string">(build Aug 24 2024 05:40:03) complex            parallel </i>
  <i name="platform" type="string">IFC22_IMPI </i>
  <i name="date" type="string">2024 11 22 </i>
  <i name="time" type="string">21:39:38 </i>
 </generator>
 <incar>
  <i type="string" name="PREC">normal</i>
  <i type="int" name="ISPIN">     2</i>
  <i type="int" name="ICHARG">     2</i>
  <i type="int" name="NELM">   100</i>
  <i name="EDIFF">      0.00000100</i>
  <i type="int" name="NSW">     0</i>
  <i name="ENCUT">    300.00000000</i>
  <i name="NUPDOWN">      0.00000000</i>
  <i type="int" name="ISMEAR">     0</i>
  <i name="SIGMA">      0.20000000</i>
  <i type="logical" name="LWAVE"> F  </i>
  <i type="logical" name="LCHARG"> F  </i>
  <v type="int" name="KPOINT_BSE">    -1     0     0     0</v>
  <i type="int" name="NELM">   100</i>
 </incar>
 <structure name="primitive_cell" >
  <crystal>
   <varray name="basis" >
    <v>      15.00000000       0.00000000       0.00000000 </v>
    <v>       0.00000000      15.00000000       0.00000000 </v>
    <v>       0.00000000       0.00000000       1.10000000 </v>
   </varray>
   <i name="volume">    247.50000000 </i>
   <varray name="rec_basis" >
    <v>       0.06666667      -0.00000000       0.00000000 </v>
    <v>       0.00000000       0.06666667       0.00000000 </v>
    <v>      -0.00000000      -0.00000000       0.90909091 </v>
   </varray>
  </crystal>
  <varray name="positions" >
   <v>       0.00000000       0.00000000       0.00000000 </v>
  </varray>
 </structure>
 <varray name="primitive_index" >
  <v type="int" >        1 </v>
 </varray>
 <kpoints>
  <generation param="Gamma">
   <v type="int" name="divisions">       1        1        1 </v>
   <v name="usershift">      0.00000000       0.00000000       0.00000000 </v>
   <v name="genvec1">      1.00000000      -0.00000000       0.00000000 </v>
   <v name="genvec2">      0.00000000       1.00000000       0.00000000 </v>
   <v name="genvec3">     -0.00000000      -0.00000000       1.00000000 </v>
   <v name="shift">      0.00000000       0.00000000       0.00000000 </v>
  </generation>
  <varray name="kpointlist" >
   <v>       0.00000000       0.00000000       0.00000000 </v>
  </varray>
  <varray name="weights" >
   <v>       1.00000000 </v>
  </varray>
 </kpoints>
 <parameters>
  <separator name="general" >
   <i type="string" name="SYSTEM">unknown system</i>
   <i type="logical" name="LCOMPAT"> F  </i>
  </separator>
  <separator name="electronic" >
   <i type="string" name="PREC">normal</i>
   <i name="ENMAX">    300.00000000</i>
   <i name="ENAUG">    400.00000000</i>
   <i name="EDIFF">      0.00000100</i>
   <i type="int" name="IALGO">    38</i>
   <i type="int" name="IWAVPR">    10</i>
   <i type="int" name="NBANDS">    12</i>
   <i name="NELECT">      8.00000000</i>
   <i type="int" name="TURBO">     0</i>
   <i type="int" name="IRESTART">     0</i>
   <i type="int" name="NREBOOT">     0</i>
   <i type="int" name="NMIN">     0</i>
   <i name="EREF">      0.00000000</i>
   <separator name="electronic smearing" >
    <i type="int" name="ISMEAR">     0</i>
    <i name="SIGMA">      0.20000000</i>
    <i name="KSPACING">      0.50000000</i>
    <i type="logical" name="KGAMMA"> T  </i>
   </separator>
   <separator name="electronic projectors" >
    <i type="logical" name="LREAL"> F  </i>
    <v name="ROPT">      0.00000000</v>
    <i type="int" name="LMAXPAW">  -100</i>
    <i type="int" name="LMAXMIX">     2</i>
    <i type="logical" name="NLSPLINE"> F  </i>
   </separator>
   <separator name="electronic startup" >
    <i type="int" name="ISTART">     0</i>
    <i type="int" name="ICHARG">     2</i>
    <i type="int" name="INIWAV">     1</i>
   </separator>
   <separator name="electronic spin" >
    <i type="int" name="ISPIN">     2</i>
    <i type="logical" name="LNONCOLLINEAR"> F  </i>
    <v name="MAGMOM">      0.00000000      0.00000000      0.00000000      0.00000000      0.00000000      0.00000000      0.00000000      0.00000000</v>
    <i name="NUPDOWN">      0.00000000</i>
    <i type="logical" name="LSORBIT"> F  </i>
    <v name="SAXIS">      0.00000000      0.00000000      1.00000000</v>
    <i type="logical" name="LSPIRAL"> F  </i>
    <v name="QSPIRAL">      0.00000000      0.00000000      0.00000000</v>
    <i type="logical" name="LZEROZ"> F  </i>
   </separator>
   <separator name="electronic exchange-correlation" >
    <i type="logical" name="LASPH"> F  </i>
    <i type="logical" name="LMETAGGA"> F  </i>
   </separator>
   <separator name="electronic convergence" >
    <i type="int" name="NELM">   100</i>
    <i type="int" name="NELMDL">    -5</i>
    <i type="int" name="NELMIN">     2</i>
    <i name="ENINI">    300.00000000</i>
    <separator name="electronic convergence detail" >
     <i type="logical" name="LDIAG"> T  </i>
     <i type="logical" name="LSUBROT"> F  </i>
     <i name="WEIMIN">      0.00000000</i>
     <i name="EBREAK">      0.00000002</i>
     <i name="DEPER">      0.30000000</i>
     <i type="int" name="NRMM">     4</i>
     <i name="TIME">      0.40000000</i>
    </separator>
   </separator>
   <separator name="electronic mixer" >
    <i name="AMIX">      0.40000000</i>
    <i name="BMIX">      1.00000000</i>
    <i name="AMIN">      0.10000000</i>
    <i name="AMIX_MAG">      1.60000000</i>
    <i name="BMIX_MAG">      1.00000000</i>
    <separator name="electronic mixer details" >
     <i type="int" name="IMIX">     4</i>
     <i type="logical" name="MIXFIRST"> F  </i>
     <i type="int" name="MAXMIX">   -45</i>
     <i name="WC">    100.00000000</i>
     <i type="int" name="INIMIX">     1</i>
     <i type="int" name="MIXPRE">     1</i>
     <i type="int" name="MREMOVE">     5</i>
    </separator>
   </separator>
   <separator name="electronic dipolcorrection" >
    <i type="logical" name="LDIPOL"> F  </i>
    <i type="logical" name="LMONO"> F  </i>
    <i type="int" name="IDIPOL">     0</i>
    <i name="EPSILON">      1.00000000</i>
    <v name="DIPOL">   -100.00000000   -100.00000000   -100.00000000</v>
    <i name="EFIELD">      0.00000000</i>
   </separator>
  </separator>
  <separator name="grids" >
   <i type="int" name="NGX">    64</i>
   <i type="int" name="NGY">    64</i>
   <i type="int" name="NGZ">    40</i>
   <i type="int" name="NGXF">   128</i>
   <i type="int" name="NGYF">   128</i>
   <i type="int" name="NGZF">    80</i>
   <i type="logical" name="ADDGRID"> F  </i>
  </separator>
  <separator name="ionic" >
   <i type="int" name="NSW">     0</i>
   <i type="int" name="IBRION">    -1</i>
   <i type="int" name="MDALGO">     0</i>
   <i type="int" name="ISIF">     2</i>
   <i name="PSTRESS">      0.00000000</i>
   <i name="EDIFFG">      0.00001000</i>
   <i type="int" name="NFREE">     0</i>
   <i name="POTIM">      0.50000000</i>
   <i name="SMASS">     -3.00000000</i>
   <i name="SCALEE">      1.00000000</i>
  </separator>
  <separator name="ionic md" >
   <i name="TEBEG">      0.00010000</i>
   <i name="TEEND">      0.00010000</i>
   <i type="int" name="NBLOCK">     1</i>
   <i type="int" name="KBLOCK">     1</i>
   <i type="int" name="NPACO">   256</i>
   <i name="APACO">     16.00000000</i>
  </separator>
  <separator name="symmetry" >
   <i type="int" name="ISYM">     2</i>
   <i name="SYMPREC">      0.00001000</i>
  </separator>
  <separator name="dos" >
   <i type="int" name="LORBIT">     0</i>
   <v name="RWIGS">     -1.00000000</v>
   <i type="int" name="NEDOS">   301</i>
   <i name="EMIN">     10.00000000</i>
   <i name="EMAX">    -10.00000000</i>
   <i name="EFERMI">      0.00000000</i>
  </separator>
  <separator name="writing" >
   <i type="int" name="NWRITE">     2</i>
   <i type="logical" name="LWAVE"> F  </i>
   <i type="logical" name="LDOWNSAMPLE"> F  </i>
   <i type="logical" name="LCHARG"> F  </i>
   <i type="logical" name="LPARD"> F  </i>
   <i type="logical" name="LVTOT"> F  </i>
   <i type="logical" name="LVHAR"> F  </i>
   <i type="logical" name="LELF"> F  </i>
   <i type="logical" name="LOPTICS"> F  </i>
   <v name="STM">      0.00000000      0.00000000      0.00000000      0.00000000      0.00000000      0.00000000      0.00000000</v>
  </separator>
  <separator name="performance" >
   <i type="int" name="NPAR">     4</i>
   <i type="int" name="NSIM">     4</i>
   <i type="int" name="NBLK">    -1</i>
   <i type="logical" name="LPLANE"> T  </i>
   <i type="logical" name="LSCALAPACK"> T  </i>
   <i type="logical" name="LSCAAWARE"> F  </i>
   <i type="logical" name="LSCALU"> F  </i>
   <i type="logical" name="LASYNC"> F  </i>
   <i type="logical" name="LORBITALREAL"> F  </i>
  </separator>
  <separator name="miscellaneous" >
   <i type="int" name="IDIOT">     3</i>
   <i type="int" name="ISPECIAL">     0</i>
   <i type="logical" name="LMUSIC"> F  </i>
   <v name="POMASS">      1.00000000</v>
   <v name="DARWINR">      0.00000000</v>
   <v name="DARWINV">      1.00000000</v>
   <i type="logical" name="LCORR"> T  </i>
  </separator>
  <i type="logical" name="GGA_COMPAT"> T  </i>
  <i type="logical" name="LBERRY"> F  </i>
  <i type="int" name="ICORELEVEL">     0</i>
  <i type="logical" name="LDAU"> F  </i>
  <i type="int" name="I_CONSTRAINED_M">     0</i>
  <separator name="electronic exchange-correlation" >
   <i type="string" name="GGA">--</i>
   <i type="int" name="VOSKOWN">     0</i>
   <i type="logical" name="LHFCALC"> F  </i>
   <i type="string" name="PRECFOCK"></i>
   <i type="logical" name="LSYMGRAD"> F  </i>
   <i type="logical" name="LHFONE"> F  </i>
   <i type="logical" name="LRHFCALC"> F  </i>
   <i type="logical" name="LTHOMAS"> F  </i>
   <i type="logical" name="LMODELHF"> F  </i>
   <i name="ENCUT4O">     -1.00000000</i>
   <i type="int" name="EXXOEP">     0</i>
   <i type="int" name="FOURORBIT">     0</i>
   <i name="AEXX">      0.00000000</i>
   <i name="HFALPHA">      0.00000000</i>
   <i name="MCALPHA">      0.00000000</i>
   <i name="ALDAX">      1.00000000</i>
   <i name="AGGAX">      1.00000000</i>
   <i name="ALDAC">      1.00000000</i>
   <i name="AGGAC">      1.00000000</i>
   <i type="int" name="NKREDX">     1</i>
   <i type="int" name="NKREDY">     1</i>
   <i type="int" name="NKREDZ">     1</i>
   <i type="logical" name="SHIFTRED"> F  </i>
   <i type="logical" name="ODDONLY"> F  </i>
   <i type="logical" name="EVENONLY"> F  </i>
   <i type="int" name="LMAXFOCK">     0</i>
   <i type="int" name="NMAXFOCKAE">     0</i>
   <i type="logical" name="LFOCKAEDFT"> F  </i>
   <i name="HFSCREEN">      0.00000000</i>
   <i name="HFSCREENC">      0.00000000</i>
   <i type="int" name="NBANDSGWLOW">     0</i>
  </separator>
  <separator name="vdW DFT" >
   <i type="logical" name="LUSE_VDW"> F  </i>
   <i name="Zab_VDW">     -0.84910000</i>
   <i name="PARAM1">      0.12340000</i>
   <i name="PARAM2">      1.00000000</i>
   <i name="PARAM3">      0.00000000</i>
  </separator>
  <separator name="model GW" >
   <i type="int" name="MODEL_GW">     0</i>
   <i name="MODEL_EPS0">    148.50000000</i>
   <i name="MODEL_ALPHA">      1.00000000</i>
  </separator>
  <separator name="linear response parameters" >
   <i type="logical" name="LEPSILON"> F  </i>
   <i type="logical" name="LRPA"> F  </i>
   <i type="logical" name="LNABLA"> F  </i>
   <i type="logical" name="LVEL"> F  </i>
   <i type="int" name="KINTER">     0</i>
   <i name="CSHIFT">      0.10000000</i>
   <i name="OMEGAMAX">     -1.00000000</i>
   <i name="DEG_THRESHOLD">      0.00200000</i>
   <i name="RTIME">     -0.10000000</i>
   <i name="WPLASMAI">      0.00000000</i>
   <v name="DFIELD">      0.00000000      0.00000000      0.00000000</v>
   <v name="WPLASMA">      0.00000000      0.00000000      0.00000000      0.00000000      0.00000000      0.00000000      0.00000000      0.00000000      0.00000000</v>
  </separator>
  <separator name="orbital magnetization" >
   <i type="logical" name="NUCIND"> F  </i>
   <v name="MAGPOS">      0.00000000      0.00000000      0.00000000</v>
   <i type="logical" name="LNICSALL"> T  </i>
   <i type="logical" name="ORBITALMAG"> F  </i>
   <i type="logical" name="LMAGBLOCH"> F  </i>
   <i type="logical" name="LCHIMAG"> F  </i>
   <i type="logical" name="LGAUGE"> T  </i>
   <i type="int" name="MAGATOM">     0</i>
   <v name="MAGDIPOL">      0.00000000      0.00000000      0.00000000</v>
   <v name="AVECCONST">      0.00000000      0.00000000      0.00000000</v>
  </separator>
  <separator name="response functions" >
   <i type="logical" name="LADDER"> F  </i>
   <i type="logical" name="LRPAFORCE"> F  </i>
   <i type="logical" name="LFXC"> F  </i>
   <i type="logical" name="LHARTREE"> T  </i>
   <i type="int" name="IBSE">     0</i>
   <v type="int" name="KPOINT">    -1     0     0     0</v>
   <i type="logical" name="LTCTE"> F  </i>
   <i type="logical" name="LTETE"> F  </i>
   <i type="logical" name="LTRIPLET"> F  </i>
   <i type="logical" name="LFXCEPS"> F  </i>
   <i type="logical" name="LFXHEG"> F  </i>
   <i type="int" name="NATURALO">     2</i>
   <i type="logical" name="L2ORDER"> F  </i>
   <i type="logical" name="LMP2LT"> F  </i>
   <i type="logical" name="LUSEW"> F  </i>
   <i name="ENCUTGW">     -2.00000000</i>
   <i name="ENCUTGWSOFT">     -2.00000000</i>
   <i name="ENCUTLF">     -1.00000000</i>
   <i type="int" name="LMAXMP2">    -1</i>
   <i name="SCISSOR">      0.00000000</i>
   <i type="int" name="NOMEGA">     0</i>
   <i type="int" name="NOMEGAR">     0</i>
   <i type="int" name="NBANDSGW">    -1</i>
   <i type="int" name="NBANDSO">    -1</i>
   <i type="int" name="NBANDSV">    -1</i>
   <i type="int" name="NELM">   100</i>
   <i type="int" name="NELMHF">     1</i>
   <i type="int" name="DIM">     3</i>
   <i type="int" name="ANTIRES">     0</i>
   <i name="OMEGAMAX">    -30.00000000</i>
   <i name="OMEGAMIN">    -30.00000000</i>
   <i name="OMEGATL">   -200.00000000</i>
   <i type="int" name="OMEGAGRID">   140</i>
   <i name="CSHIFT">     -0.10000000</i>
   <i type="logical" name="SELFENERGY"> F  </i>
   <i type="logical" name="LSPECTRAL"> F  </i>
   <i type="logical" name="LSPECTRALGW"> F  </i>
   <i type="logical" name="LSINGLES"> F  </i>
   <i type="logical" name="LFERMIGW"> F  </i>
   <i type="logical" name="ODDONLYGW"> F  </i>
   <i type="logical" name="EVENONLYGW"> F  </i>
   <i type="int" name="NKREDLFX">     1</i>
   <i type="int" name="NKREDLFY">     1</i>
   <i type="int" name="NKREDLFZ">     1</i>
   <i type="int" name="MAXMEM">  2800</i>
   <i type="int" name="TELESCOPE">     0</i>
   <i type="int" name="TAUPAR">     1</i>
   <i type="int" name="OMEGAPAR">    -1</i>
   <i name="LAMBDA">      1.00000000</i>
  </separator>
  <separator name="External order field" >
   <i name="OFIELD_KAPPA">      0.00000000</i>
   <v name="OFIELD_K">      0.00000000      0.00000000      0.00000000</v>
   <i name="OFIELD_Q6_NEAR">      0.00000000</i>
   <i name="OFIELD_Q6_FAR">      0.00000000</i>
   <i name="OFIELD_A">      0.00000000</i>
  </separator>
 </parameters>
 <atominfo>
  <atoms>       8 </atoms>
  <types>       1 </types>
  <array name="atoms" >
   <dimension dim="1">ion</dimension>
   <field type="string">element</field>
   <field type="int">atomtype</field>
   <set>
    <rc><c>H </c><c>   1</c></rc>
    <rc><c>H </c><c>   1</c></rc>
    <rc><c>H </c><c>   1</c></rc>
    <rc><c>H </c><c>   1</c></rc>
    <rc><c>H </c><c>   1</c></rc>
    <rc><c>H </c><c>   1</c></rc>
    <rc><c>H </c><c>   1</c></rc>
    <rc><c>H </c><c>   1</c></rc>
   </set>
  </array>
  <array name="atomtypes" >
   <dimension dim="1">type</dimension>
   <field type="int">atomspertype</field>
   <field type="string">element</field>
   <field>mass</field>
   <field>valence</field>
   <field type="string">pseudopotential</field>
   <set>
    <rc><c>   8</c><c>H </c><c>      1.00000000</c><c>      1.00000000</c><c>  PAW_PBE H 15Jun2001                   </c></rc>
   </set>
  </array>
 </atominfo>
 <structure name="initialpos" >
  <crystal>
   <varray name="basis" >
    <v>      15.00000000       0.00000000       0.00000000 </v>
    <v>       0.00000000      15.00000000       0.00000000 </v>
    <v>       0.00000000       0.00000000       8.80000000 </v>
   </varray>
   <i name="volume">   1980.00000000 </i>
   <varray name="rec_basis" >
    <v>       0.06666667      -0.00000000       0.00000000 </v>
    <v>       0.00000000       0.06666667       0.00000000 </v>
    <v>      -0.00000000      -0.00000000       0.11363636 </v>
   </varray>
  </crystal>
  <varray name="positions" >
   <v>       0.00000000       0.00000000       0.00000000 </v>
   <v>       0.00000000       0.00000000       0.12500000 </v>
   <v>       0.00000000       0.00000000       0.25000000 </v>
   <v>       0.00000000       0.00000000       0.37500000 </v>
   <v>       0.00000000       0.00000000       0.50000000 </v>
   <v>       0.00000000       0.00000000       0.62500000 </v>
   <v>       0.00000000       0.00000000       0.75000000 </v>
   <v>       0.00000000       0.00000000       0.87500000 </v>
  </varray>
 </structure>
 <calculation>
  <scstep>
   <time name="dav">    0.33    0.33</time>
   <time name="total">    0.79    0.79</time>
   <energy>
    <i name="alphaZ">      0.07874481 </i>
    <i name="ewald">    124.23356883 </i>
    <i name="hartreedc">   -169.81365370 </i>
    <i name="XCdc">     18.18470952 </i>
    <i name="pawpsdc">     17.07221949 </i>
    <i name="pawaedc">    -17.14324176 </i>
    <i name="eentropy">     -0.10028114 </i>
    <i name="bandstr">    -68.41103136 </i>
    <i name="atom">     99.56620307 </i>
    <i name="e_fr_energy">      3.66723776 </i>
    <i name="e_wo_entrp">      3.76751890 </i>
    <i name="e_0_energy">      3.71737833 </i>
   </energy>
  </scstep>
  <scstep>
   <time name="dav">    0.30    0.30</time>
   <time name="total">    0.30    0.30</time>
   <energy>
    <i name="e_fr_energy">    -18.63538151 </i>
    <i name="e_wo_entrp">    -18.59743573 </i>
    <i name="e_0_energy">    -18.61640862 </i>
   </energy>
  </scstep>
  <scstep>
   <time name="dav">    0.32    0.32</time>
   <time name="total">    0.32    0.32</time>
   <energy>
    <i name="e_fr_energy">    -21.76669183 </i>
    <i name="e_wo_entrp">    -21.54254580 </i>
    <i name="e_0_energy">    -21.65461881 </i>
   </energy>
  </scstep>
  <scstep>
   <time name="dav">    0.26    0.26</time>
   <time name="total">    0.26    0.26</time>
   <energy>
    <i name="e_fr_energy">    -21.83847676 </i>
    <i name="e_wo_entrp">    -21.61280126 </i>
    <i name="e_0_energy">    -21.72563901 </i>
   </energy>
  </scstep>
  <scstep>
   <time name="dav">    0.39    0.39</time>
   <time name="total">    0.53    0.53</time>
   <energy>
    <i name="e_fr_energy">    -21.83937973 </i>
    <i name="e_wo_entrp">    -21.61370390 </i>
    <i name="e_0_energy">    -21.72654182 </i>
   </energy>
  </scstep>
  <scstep>
   <time name="dav">    0.27    0.27</time>
   <time name="total">    0.90    0.90</time>
   <energy>
    <i name="e_fr_energy">    -21.49465804 </i>
    <i name="e_wo_entrp">    -21.26898221 </i>
    <i name="e_0_energy">    -21.38182013 </i>
   </energy>
  </scstep>
  <scstep>
   <time name="dav">    0.30    0.30</time>
   <time name="total">    0.93    0.93</time>
   <energy>
    <i name="e_fr_energy">    -21.21124098 </i>
    <i name="e_wo_entrp">    -20.98556515 </i>
    <i name="e_0_energy">    -21.09840306 </i>
   </energy>
  </scstep>
  <scstep>
   <time name="dav">    0.26    0.26</time>
   <time name="total">    0.89    0.89</time>
   <energy>
    <i name="e_fr_energy">    -21.20747889 </i>
    <i name="e_wo_entrp">    -20.98180305 </i>
    <i name="e_0_energy">    -21.09464097 </i>
   </energy>
  </scstep>
  <scstep>
   <time name="dav">    0.29    0.29</time>
   <time name="total">    0.92    0.92</time>
   <energy>
    <i name="e_fr_energy">    -21.20676837 </i>
    <i name="e_wo_entrp">    -20.98109254 </i>
    <i name="e_0_energy">    -21.09393045 </i>
   </energy>
  </scstep>
  <scstep>
   <time name="dav">    0.29    0.29</time>
   <time name="total">    0.92    0.92</time>
   <energy>
    <i name="e_fr_energy">    -21.20915328 </i>
    <i name="e_wo_entrp">    -20.98347745 </i>
    <i name="e_0_energy">    -21.09631537 </i>
   </energy>
  </scstep>
  <scstep>
   <time name="dav">    0.26    0.26</time>
   <time name="total">    0.89    0.89</time>
   <energy>
    <i name="e_fr_energy">    -21.21123685 </i>
    <i name="e_wo_entrp">    -20.98556101 </i>
    <i name="e_0_energy">    -21.09839893 </i>
   </energy>
  </scstep>
  <scstep>
   <time name="dav">    0.27    0.27</time>
   <time name="total">    0.90    0.90</time>
   <energy>
    <i name="e_fr_energy">    -21.21481273 </i>
    <i name="e_wo_entrp">    -20.98913690 </i>
    <i name="e_0_energy">    -21.10197482 </i>
   </energy>
  </scstep>
  <scstep>
   <time name="dav">    0.26    0.28</time>
   <time name="total">    0.88    0.90</time>
   <energy>
    <i name="e_fr_energy">    -21.21591910 </i>
    <i name="e_wo_entrp">    -20.99024326 </i>
    <i name="e_0_energy">    -21.10308118 </i>
   </energy>
  </scstep>
  <scstep>
   <time name="dav">    0.26    0.26</time>
   <time name="total">    0.88    0.88</time>
   <energy>
    <i name="e_fr_energy">    -21.21627599 </i>
    <i name="e_wo_entrp">    -20.99060015 </i>
    <i name="e_0_energy">    -21.10343807 </i>
   </energy>
  </scstep>
  <scstep>
   <time name="dav">    0.26    0.26</time>
   <time name="total">    0.89    0.89</time>
   <energy>
    <i name="e_fr_energy">    -21.21665975 </i>
    <i name="e_wo_entrp">    -20.99098391 </i>
    <i name="e_0_energy">    -21.10382183 </i>
   </energy>
  </scstep>
  <scstep>
   <time name="dav">    0.27    0.27</time>
   <time name="total">    0.90    0.90</time>
   <energy>
    <i name="e_fr_energy">    -21.21669636 </i>
    <i name="e_wo_entrp">    -20.99102052 </i>
    <i name="e_0_energy">    -21.10385844 </i>
   </energy>
  </scstep>
  <scstep>
   <time name="dav">    0.26    0.26</time>
   <time name="total">    0.89    0.89</time>
   <energy>
    <i name="e_fr_energy">    -21.21674678 </i>
    <i name="e_wo_entrp">    -20.99107095 </i>
    <i name="e_0_energy">    -21.10390887 </i>
   </energy>
  </scstep>
  <scstep>
   <time name="dav">    0.26    0.26</time>
   <time name="total">    0.89    0.89</time>
   <energy>
    <i name="e_fr_energy">    -21.21675086 </i>
    <i name="e_wo_entrp">    -20.99107502 </i>
    <i name="e_0_energy">    -21.10391294 </i>
   </energy>
  </scstep>
  <scstep>
   <time name="dav">    0.27    0.31</time>
   <time name="total">    0.91    0.95</time>
   <energy>
    <i name="e_fr_energy">    -21.21675551 </i>
    <i name="e_wo_entrp">    -20.99107968 </i>
    <i name="e_0_energy">    -21.10391759 </i>
   </energy>
  </scstep>
  <scstep>
   <time name="dav">    0.26    0.26</time>
   <time name="total">    0.90    0.90</time>
   <energy>
    <i name="e_fr_energy">    -21.21675852 </i>
    <i name="e_wo_entrp">    -20.99108268 </i>
    <i name="e_0_energy">    -21.10392060 </i>
   </energy>
  </scstep>
  <scstep>
   <time name="dav">    0.28    0.28</time>
   <time name="total">    0.76    0.76</time>
   <energy>
    <i name="alphaZ">      0.07874481 </i>
    <i name="ewald">    124.23356883 </i>
    <i name="hartreedc">   -187.64404813 </i>
    <i name="XCdc">     20.13488882 </i>
    <i name="pawpsdc">     61.44772996 </i>
    <i name="pawaedc">    -61.56365215 </i>
    <i name="eentropy">     -0.22567583 </i>
    <i name="bandstr">    -77.24451861 </i>
    <i name="atom">     99.56620307 </i>
    <i name="e_fr_energy">    -21.21675923 </i>
    <i name="e_wo_entrp">    -20.99108339 </i>
    <i name="e_0_energy">    -21.10392131 </i>
   </energy>
  </scstep>
  <structure>
   <crystal>
    <varray name="basis" >
     <v>      15.00000000       0.00000000       0.00000000 </v>
     <v>       0.00000000      15.00000000       0.00000000 </v>
     <v>       0.00000000       0.00000000       8.80000000 </v>
    </varray>
    <i name="volume">   1980.00000000 </i>
    <varray name="rec_basis" >
     <v>       0.06666667      -0.00000000       0.00000000 </v>
     <v>       0.00000000       0.06666667       0.00000000 </v>
     <v>      -0.00000000      -0.00000000       0.11363636 </v>
    </varray>
   </crystal>
   <varray name="positions" >
    <v>       0.00000000       0.00000000       0.00000000 </v>
    <v>       0.00000000       0.00000000       0.12500000 </v>
    <v>       0.00000000       0.00000000       0.25000000 </v>
    <v>       0.00000000       0.00000000       0.37500000 </v>
    <v>       0.00000000       0.00000000       0.50000000 </v>
    <v>       0.00000000       0.00000000       0.62500000 </v>
    <v>       0.00000000       0.00000000       0.75000000 </v>
    <v>       0.00000000       0.00000000       0.87500000 </v>
   </varray>
  </structure>
  <varray name="forces" >
   <v>      -0.00000000       0.00000000      -0.00000000 </v>
   <v>       0.00000000      -0.00000000      -0.00000000 </v>
   <v>       0.00000000      -0.00000000       0.00000000 </v>
   <v>      -0.00000000      -0.00000000      -0.00000000 </v>
   <v>       0.00000000       0.00000000      -0.00000000 </v>
   <v>      -0.00000000       0.00000000       0.00000000 </v>
   <v>      -0.00000000       0.00000000      -0.00000000 </v>
   <v>       0.00000000       0.00000000       0.00000000 </v>
  </varray>
  <varray name="stress" >
   <v>      -0.95627303      -0.00000000      -0.00000000 </v>
   <v>      -0.00000000      -0.95627303      -0.00000000 </v>
   <v>      -0.00000000      -0.00000000      -4.20081624 </v>
  </varray>
  <energy>
   <i name="e_fr_energy">    -21.21675923 </i>
   <i name="e_wo_entrp">    -21.10392131 </i>
   <i name="e_0_energy">     -0.22567583 </i>
  </energy>
  <time name="totalsc">   17.39   17.44</time>
  <eigenvalues>
   <array>
    <dimension dim="1">band</dimension>
    <dimension dim="2">kpoint</dimension>
    <dimension dim="3">spin</dimension>
    <field>eigene</field>
    <field>occ</field>
    <set>
     <set comment="spin 1">
      <set comment="kpoint 1">
       <r>  -12.5192    1.0000 </r>
       <r>  -10.6067    1.0000 </r>
       <r>  -10.6067    1.0000 </r>
       <r>   -4.8897    0.5000 </r>
       <r>   -4.8897    0.5000 </r>
       <r>   -0.1470    0.0000 </r>
       <r>   -0.1470    0.0000 </r>
       <r>   -0.1202    0.0000 </r>
       <r>    0.5772    0.0000 </r>
       <r>    0.5970    0.0000 </r>
       <r>    0.9363    0.0000 </r>
       <r>    0.9363    0.0000 </r>
      </set>
     </set>
     <set comment="spin 2">
      <set comment="kpoint 1">
       <r>  -12.5192    1.0000 </r>
       <r>  -10.6067    1.0000 </r>
       <r>  -10.6067    1.0000 </r>
       <r>   -4.8897    0.5000 </r>
       <r>   -4.8897    0.5000 </r>
       <r>   -0.1472    0.0000 </r>
       <r>   -0.1472    0.0000 </r>
       <r>   -0.1204    0.0000 </r>
       <r>    0.5771    0.0000 </r>
       <r>    0.5975    0.0000 </r>
       <r>    0.9370    0.0000 </r>
       <r>    0.9370    0.0000 </r>
      </set>
     </set>
    </set>
   </array>
  </eigenvalues>
  <separator name="orbital magnetization" >
   <v name="MAGDIPOLOUT">      0.00000000      0.00000000      0.00000000</v>
  </separator>
  <dos>
   <i name="efermi">     -4.88971132 </i>
   <total>
    <array>
     <dimension dim="1">gridpoints</dimension>
     <dimension dim="2">spin</dimension>
     <field>energy</field>
     <field>total</field>
     <field>integrated</field>
     <set>
      <set comment="spin 1">
       <r>   -14.5192     0.0000     0.0000 </r>
       <r>   -14.4611     0.0000     0.0000 </r>
       <r>   -14.4029     0.0000     0.0000 </r>
       <r>   -14.3447     0.0000     0.0000 </r>
       <r>   -14.2865     0.0000     0.0000 </r>
       <r>   -14.2283     0.0000     0.0000 </r>
       <r>   -14.1701     0.0000     0.0000 </r>
       <r>   -14.1119     0.0000     0.0000 </r>
       <r>   -14.0537     0.0000     0.0000 </r>
       <r>   -13.9956     0.0000     0.0000 </r>
       <r>   -13.9374     0.0000     0.0000 </r>
       <r>   -13.8792     0.0000     0.0000 </r>
       <r>   -13.8210     0.0000     0.0000 </r>
       <r>   -13.7628     0.0000     0.0000 </r>
       <r>   -13.7046     0.0000     0.0000 </r>
       <r>   -13.6464     0.0000     0.0000 </r>
       <r>   -13.5882     0.0000     0.0000 </r>
       <r>   -13.5301     0.0000     0.0000 </r>
       <r>   -13.4719     0.0000     0.0000 </r>
       <r>   -13.4137     0.0000     0.0000 </r>
       <r>   -13.3555     0.0000     0.0000 </r>
       <r>   -13.2973     0.0000     0.0000 </r>
       <r>   -13.2391     0.0000     0.0000 </r>
       <r>   -13.1809     0.0000     0.0000 </r>
       <r>   -13.1227     0.0003     0.0000 </r>
       <r>   -13.0646     0.0016     0.0001 </r>
       <r>   -13.0064     0.0079     0.0006 </r>
       <r>   -12.9482     0.0318     0.0024 </r>
       <r>   -12.8900     0.1088     0.0088 </r>
       <r>   -12.8318     0.3152     0.0271 </r>
       <r>   -12.7736     0.7729     0.0721 </r>
       <r>   -12.7154     1.6034     0.1654 </r>
       <r>   -12.6572     2.8150     0.3292 </r>
       <r>   -12.5991     4.1822     0.5725 </r>
       <r>   -12.5409     5.2581     0.8785 </r>
       <r>   -12.4827     5.5947     1.2040 </r>
       <r>   -12.4245     5.0376     1.4971 </r>
       <r>   -12.3663     3.8387     1.7205 </r>
       <r>   -12.3081     2.4754     1.8645 </r>
       <r>   -12.2499     1.3508     1.9431 </r>
       <r>   -12.1917     0.6238     1.9794 </r>
       <r>   -12.1336     0.2438     1.9936 </r>
       <r>   -12.0754     0.0806     1.9983 </r>
       <r>   -12.0172     0.0225     1.9996 </r>
       <r>   -11.9590     0.0053     1.9999 </r>
       <r>   -11.9008     0.0011     2.0000 </r>
       <r>   -11.8426     0.0002     2.0000 </r>
       <r>   -11.7844     0.0000     2.0000 </r>
       <r>   -11.7262     0.0000     2.0000 </r>
       <r>   -11.6681     0.0000     2.0000 </r>
       <r>   -11.6099     0.0000     2.0000 </r>
       <r>   -11.5517     0.0000     2.0000 </r>
       <r>   -11.4935     0.0000     2.0000 </r>
       <r>   -11.4353     0.0000     2.0000 </r>
       <r>   -11.3771     0.0000     2.0000 </r>
       <r>   -11.3189     0.0000     2.0000 </r>
       <r>   -11.2607     0.0001     2.0000 </r>
       <r>   -11.2026     0.0007     2.0001 </r>
       <r>   -11.1444     0.0041     2.0003 </r>
       <r>   -11.0862     0.0190     2.0014 </r>
       <r>   -11.0280     0.0753     2.0058 </r>
       <r>   -10.9698     0.2524     2.0205 </r>
       <r>   -10.9116     0.7155     2.0621 </r>
       <r>   -10.8534     1.7163     2.1620 </r>
       <r>   -10.7952     3.4839     2.3647 </r>
       <r>   -10.7371     5.9847     2.7129 </r>
       <r>   -10.6789     8.6999     3.2191 </r>
       <r>   -10.6207    10.7026     3.8419 </r>
       <r>   -10.5625    11.1422     4.4902 </r>
       <r>   -10.5043     9.8167     5.0614 </r>
       <r>   -10.4461     7.3193     5.4873 </r>
       <r>   -10.3879     4.6182     5.7561 </r>
       <r>   -10.3297     2.4659     5.8995 </r>
       <r>   -10.2716     1.1142     5.9644 </r>
       <r>   -10.2134     0.4260     5.9892 </r>
       <r>   -10.1552     0.1378     5.9972 </r>
       <r>   -10.0970     0.0377     5.9994 </r>
       <r>   -10.0388     0.0087     5.9999 </r>
       <r>    -9.9806     0.0017     6.0000 </r>
       <r>    -9.9224     0.0003     6.0000 </r>
       <r>    -9.8642     0.0000     6.0000 </r>
       <r>    -9.8061     0.0000     6.0000 </r>
       <r>    -9.7479     0.0000     6.0000 </r>
       <r>    -9.6897     0.0000     6.0000 </r>
       <r>    -9.6315     0.0000     6.0000 </r>
       <r>    -9.5733     0.0000     6.0000 </r>
       <r>    -9.5151     0.0000     6.0000 </r>
       <r>    -9.4569     0.0000     6.0000 </r>
       <r>    -9.3987     0.0000     6.0000 </r>
       <r>    -9.3406     0.0000     6.0000 </r>
       <r>    -9.2824     0.0000     6.0000 </r>
       <r>    -9.2242     0.0000     6.0000 </r>
       <r>    -9.1660     0.0000     6.0000 </r>
       <r>    -9.1078     0.0000     6.0000 </r>
       <r>    -9.0496     0.0000     6.0000 </r>
       <r>    -8.9914     0.0000     6.0000 </r>
       <r>    -8.9332     0.0000     6.0000 </r>
       <r>    -8.8751     0.0000     6.0000 </r>
       <r>    -8.8169     0.0000     6.0000 </r>
       <r>    -8.7587     0.0000     6.0000 </r>
       <r>    -8.7005     0.0000     6.0000 </r>
       <r>    -8.6423     0.0000     6.0000 </r>
       <r>    -8.5841     0.0000     6.0000 </r>
       <r>    -8.5259     0.0000     6.0000 </r>
       <r>    -8.4677     0.0000     6.0000 </r>
       <r>    -8.4096     0.0000     6.0000 </r>
       <r>    -8.3514     0.0000     6.0000 </r>
       <r>    -8.2932     0.0000     6.0000 </r>
       <r>    -8.2350     0.0000     6.0000 </r>
       <r>    -8.1768     0.0000     6.0000 </r>
       <r>    -8.1186     0.0000     6.0000 </r>
       <r>    -8.0604     0.0000     6.0000 </r>
       <r>    -8.0022     0.0000     6.0000 </r>
       <r>    -7.9441     0.0000     6.0000 </r>
       <r>    -7.8859     0.0000     6.0000 </r>
       <r>    -7.8277     0.0000     6.0000 </r>
       <r>    -7.7695     0.0000     6.0000 </r>
       <r>    -7.7113     0.0000     6.0000 </r>
       <r>    -7.6531     0.0000     6.0000 </r>
       <r>    -7.5949     0.0000     6.0000 </r>
       <r>    -7.5367     0.0000     6.0000 </r>
       <r>    -7.4786     0.0000     6.0000 </r>
       <r>    -7.4204     0.0000     6.0000 </r>
       <r>    -7.3622     0.0000     6.0000 </r>
       <r>    -7.3040     0.0000     6.0000 </r>
       <r>    -7.2458     0.0000     6.0000 </r>
       <r>    -7.1876     0.0000     6.0000 </r>
       <r>    -7.1294     0.0000     6.0000 </r>
       <r>    -7.0712     0.0000     6.0000 </r>
       <r>    -7.0131     0.0000     6.0000 </r>
       <r>    -6.9549     0.0000     6.0000 </r>
       <r>    -6.8967     0.0000     6.0000 </r>
       <r>    -6.8385     0.0000     6.0000 </r>
       <r>    -6.7803     0.0000     6.0000 </r>
       <r>    -6.7221     0.0000     6.0000 </r>
       <r>    -6.6639     0.0000     6.0000 </r>
       <r>    -6.6057     0.0000     6.0000 </r>
       <r>    -6.5476     0.0000     6.0000 </r>
       <r>    -6.4894     0.0000     6.0000 </r>
       <r>    -6.4312     0.0000     6.0000 </r>
       <r>    -6.3730     0.0000     6.0000 </r>
       <r>    -6.3148     0.0000     6.0000 </r>
       <r>    -6.2566     0.0000     6.0000 </r>
       <r>    -6.1984     0.0000     6.0000 </r>
       <r>    -6.1402     0.0000     6.0000 </r>
       <r>    -6.0821     0.0000     6.0000 </r>
       <r>    -6.0239     0.0000     6.0000 </r>
       <r>    -5.9657     0.0000     6.0000 </r>
       <r>    -5.9075     0.0000     6.0000 </r>
       <r>    -5.8493     0.0000     6.0000 </r>
       <r>    -5.7911     0.0000     6.0000 </r>
       <r>    -5.7329     0.0000     6.0000 </r>
       <r>    -5.6747     0.0000     6.0000 </r>
       <r>    -5.6166     0.0000     6.0000 </r>
       <r>    -5.5584     0.0001     6.0000 </r>
       <r>    -5.5002     0.0005     6.0000 </r>
       <r>    -5.4420     0.0027     6.0002 </r>
       <r>    -5.3838     0.0131     6.0010 </r>
       <r>    -5.3256     0.0542     6.0041 </r>
       <r>    -5.2674     0.1894     6.0151 </r>
       <r>    -5.2092     0.5599     6.0477 </r>
       <r>    -5.1511     1.4005     6.1292 </r>
       <r>    -5.0929     2.9642     6.3017 </r>
       <r>    -5.0347     5.3093     6.6106 </r>
       <r>    -4.9765     8.0473     7.0789 </r>
       <r>    -4.9183    10.3221     7.6795 </r>
       <r>    -4.8601    11.2046     8.3315 </r>
       <r>    -4.8019    10.2928     8.9304 </r>
       <r>    -4.7437     8.0017     9.3960 </r>
       <r>    -4.6856     5.2642     9.7023 </r>
       <r>    -4.6274     2.9307     9.8728 </r>
       <r>    -4.5692     1.3807     9.9532 </r>
       <r>    -4.5110     0.5505     9.9852 </r>
       <r>    -4.4528     0.1857     9.9960 </r>
       <r>    -4.3946     0.0530     9.9991 </r>
       <r>    -4.3364     0.0128     9.9998 </r>
       <r>    -4.2782     0.0026    10.0000 </r>
       <r>    -4.2201     0.0005    10.0000 </r>
       <r>    -4.1619     0.0001    10.0000 </r>
       <r>    -4.1037     0.0000    10.0000 </r>
       <r>    -4.0455     0.0000    10.0000 </r>
       <r>    -3.9873     0.0000    10.0000 </r>
       <r>    -3.9291     0.0000    10.0000 </r>
       <r>    -3.8709     0.0000    10.0000 </r>
       <r>    -3.8127     0.0000    10.0000 </r>
       <r>    -3.7546     0.0000    10.0000 </r>
       <r>    -3.6964     0.0000    10.0000 </r>
       <r>    -3.6382     0.0000    10.0000 </r>
       <r>    -3.5800     0.0000    10.0000 </r>
       <r>    -3.5218     0.0000    10.0000 </r>
       <r>    -3.4636     0.0000    10.0000 </r>
       <r>    -3.4054     0.0000    10.0000 </r>
       <r>    -3.3472     0.0000    10.0000 </r>
       <r>    -3.2891     0.0000    10.0000 </r>
       <r>    -3.2309     0.0000    10.0000 </r>
       <r>    -3.1727     0.0000    10.0000 </r>
       <r>    -3.1145     0.0000    10.0000 </r>
       <r>    -3.0563     0.0000    10.0000 </r>
       <r>    -2.9981     0.0000    10.0000 </r>
       <r>    -2.9399     0.0000    10.0000 </r>
       <r>    -2.8817     0.0000    10.0000 </r>
       <r>    -2.8236     0.0000    10.0000 </r>
       <r>    -2.7654     0.0000    10.0000 </r>
       <r>    -2.7072     0.0000    10.0000 </r>
       <r>    -2.6490     0.0000    10.0000 </r>
       <r>    -2.5908     0.0000    10.0000 </r>
       <r>    -2.5326     0.0000    10.0000 </r>
       <r>    -2.4744     0.0000    10.0000 </r>
       <r>    -2.4162     0.0000    10.0000 </r>
       <r>    -2.3581     0.0000    10.0000 </r>
       <r>    -2.2999     0.0000    10.0000 </r>
       <r>    -2.2417     0.0000    10.0000 </r>
       <r>    -2.1835     0.0000    10.0000 </r>
       <r>    -2.1253     0.0000    10.0000 </r>
       <r>    -2.0671     0.0000    10.0000 </r>
       <r>    -2.0089     0.0000    10.0000 </r>
       <r>    -1.9507     0.0000    10.0000 </r>
       <r>    -1.8926     0.0000    10.0000 </r>
       <r>    -1.8344     0.0000    10.0000 </r>
       <r>    -1.7762     0.0000    10.0000 </r>
       <r>    -1.7180     0.0000    10.0000 </r>
       <r>    -1.6598     0.0000    10.0000 </r>
       <r>    -1.6016     0.0000    10.0000 </r>
       <r>    -1.5434     0.0000    10.0000 </r>
       <r>    -1.4852     0.0000    10.0000 </r>
       <r>    -1.4271     0.0000    10.0000 </r>
       <r>    -1.3689     0.0000    10.0000 </r>
       <r>    -1.3107     0.0000    10.0000 </r>
       <r>    -1.2525     0.0000    10.0000 </r>
       <r>    -1.1943     0.0000    10.0000 </r>
       <r>    -1.1361     0.0000    10.0000 </r>
       <r>    -1.0779     0.0000    10.0000 </r>
       <r>    -1.0197     0.0000    10.0000 </r>
       <r>    -0.9616     0.0000    10.0000 </r>
       <r>    -0.9034     0.0000    10.0000 </r>
       <r>    -0.8452     0.0000    10.0000 </r>
       <r>    -0.7870     0.0002    10.0000 </r>
       <r>    -0.7288     0.0014    10.0001 </r>
       <r>    -0.6706     0.0074    10.0005 </r>
       <r>    -0.6124     0.0339    10.0025 </r>
       <r>    -0.5542     0.1309    10.0101 </r>
       <r>    -0.4961     0.4283    10.0350 </r>
       <r>    -0.4379     1.1875    10.1041 </r>
       <r>    -0.3797     2.7887    10.2664 </r>
       <r>    -0.3215     5.5483    10.5892 </r>
       <r>    -0.2633     9.3521    11.1334 </r>
       <r>    -0.2051    13.3564    11.9106 </r>
       <r>    -0.1469    16.1628    12.8511 </r>
       <r>    -0.0887    16.5736    13.8154 </r>
       <r>    -0.0306    14.4016    14.6534 </r>
       <r>     0.0276    10.6064    15.2706 </r>
       <r>     0.0858     6.6282    15.6563 </r>
       <r>     0.1440     3.5460    15.8626 </r>
       <r>     0.2022     1.7347    15.9636 </r>
       <r>     0.2604     1.0960    16.0273 </r>
       <r>     0.3186     1.4643    16.1125 </r>
       <r>     0.3768     2.7932    16.2751 </r>
       <r>     0.4349     5.0160    16.5669 </r>
       <r>     0.4931     7.7574    17.0183 </r>
       <r>     0.5513    10.2451    17.6144 </r>
       <r>     0.6095    11.6588    18.2928 </r>
       <r>     0.6677    11.7337    18.9756 </r>
       <r>     0.7259    11.0444    19.6182 </r>
       <r>     0.7841    10.5800    20.2339 </r>
       <r>     0.8423    10.8999    20.8681 </r>
       <r>     0.9004    11.6372    21.5452 </r>
       <r>     0.9586    11.8214    22.2331 </r>
       <r>     1.0168    10.7161    22.8566 </r>
       <r>     1.0750     8.3976    23.3453 </r>
       <r>     1.1332     5.6142    23.6720 </r>
       <r>     1.1914     3.1860    23.8573 </r>
       <r>     1.2496     1.5317    23.9465 </r>
       <r>     1.3078     0.6234    23.9827 </r>
       <r>     1.3659     0.2147    23.9952 </r>
       <r>     1.4241     0.0626    23.9989 </r>
       <r>     1.4823     0.0154    23.9998 </r>
       <r>     1.5405     0.0032    24.0000 </r>
       <r>     1.5987     0.0006    24.0000 </r>
       <r>     1.6569     0.0001    24.0000 </r>
       <r>     1.7151     0.0000    24.0000 </r>
       <r>     1.7733     0.0000    24.0000 </r>
       <r>     1.8314     0.0000    24.0000 </r>
       <r>     1.8896     0.0000    24.0000 </r>
       <r>     1.9478     0.0000    24.0000 </r>
       <r>     2.0060     0.0000    24.0000 </r>
       <r>     2.0642     0.0000    24.0000 </r>
       <r>     2.1224     0.0000    24.0000 </r>
       <r>     2.1806     0.0000    24.0000 </r>
       <r>     2.2388     0.0000    24.0000 </r>
       <r>     2.2969     0.0000    24.0000 </r>
       <r>     2.3551     0.0000    24.0000 </r>
       <r>     2.4133     0.0000    24.0000 </r>
       <r>     2.4715     0.0000    24.0000 </r>
       <r>     2.5297     0.0000    24.0000 </r>
       <r>     2.5879     0.0000    24.0000 </r>
       <r>     2.6461     0.0000    24.0000 </r>
       <r>     2.7043     0.0000    24.0000 </r>
       <r>     2.7624     0.0000    24.0000 </r>
       <r>     2.8206     0.0000    24.0000 </r>
       <r>     2.8788     0.0000    24.0000 </r>
       <r>     2.9370     0.0000    24.0000 </r>
      </set>
      <set comment="spin 2">
       <r>   -14.5192     0.0000     0.0000 </r>
       <r>   -14.4611     0.0000     0.0000 </r>
       <r>   -14.4029     0.0000     0.0000 </r>
       <r>   -14.3447     0.0000     0.0000 </r>
       <r>   -14.2865     0.0000     0.0000 </r>
       <r>   -14.2283     0.0000     0.0000 </r>
       <r>   -14.1701     0.0000     0.0000 </r>
       <r>   -14.1119     0.0000     0.0000 </r>
       <r>   -14.0537     0.0000     0.0000 </r>
       <r>   -13.9956     0.0000     0.0000 </r>
       <r>   -13.9374     0.0000     0.0000 </r>
       <r>   -13.8792     0.0000     0.0000 </r>
       <r>   -13.8210     0.0000     0.0000 </r>
       <r>   -13.7628     0.0000     0.0000 </r>
       <r>   -13.7046     0.0000     0.0000 </r>
       <r>   -13.6464     0.0000     0.0000 </r>
       <r>   -13.5882     0.0000     0.0000 </r>
       <r>   -13.5301     0.0000     0.0000 </r>
       <r>   -13.4719     0.0000     0.0000 </r>
       <r>   -13.4137     0.0000     0.0000 </r>
       <r>   -13.3555     0.0000     0.0000 </r>
       <r>   -13.2973     0.0000     0.0000 </r>
       <r>   -13.2391     0.0000     0.0000 </r>
       <r>   -13.1809     0.0000     0.0000 </r>
       <r>   -13.1227     0.0003     0.0000 </r>
       <r>   -13.0646     0.0016     0.0001 </r>
       <r>   -13.0064     0.0079     0.0006 </r>
       <r>   -12.9482     0.0318     0.0024 </r>
       <r>   -12.8900     0.1088     0.0088 </r>
       <r>   -12.8318     0.3152     0.0271 </r>
       <r>   -12.7736     0.7729     0.0721 </r>
       <r>   -12.7154     1.6034     0.1654 </r>
       <r>   -12.6572     2.8150     0.3292 </r>
       <r>   -12.5991     4.1822     0.5725 </r>
       <r>   -12.5409     5.2581     0.8785 </r>
       <r>   -12.4827     5.5947     1.2040 </r>
       <r>   -12.4245     5.0376     1.4971 </r>
       <r>   -12.3663     3.8387     1.7205 </r>
       <r>   -12.3081     2.4754     1.8645 </r>
       <r>   -12.2499     1.3508     1.9431 </r>
       <r>   -12.1917     0.6238     1.9794 </r>
       <r>   -12.1336     0.2438     1.9936 </r>
       <r>   -12.0754     0.0806     1.9983 </r>
       <r>   -12.0172     0.0225     1.9996 </r>
       <r>   -11.9590     0.0053     1.9999 </r>
       <r>   -11.9008     0.0011     2.0000 </r>
       <r>   -11.8426     0.0002     2.0000 </r>
       <r>   -11.7844     0.0000     2.0000 </r>
       <r>   -11.7262     0.0000     2.0000 </r>
       <r>   -11.6681     0.0000     2.0000 </r>
       <r>   -11.6099     0.0000     2.0000 </r>
       <r>   -11.5517     0.0000     2.0000 </r>
       <r>   -11.4935     0.0000     2.0000 </r>
       <r>   -11.4353     0.0000     2.0000 </r>
       <r>   -11.3771     0.0000     2.0000 </r>
       <r>   -11.3189     0.0000     2.0000 </r>
       <r>   -11.2607     0.0001     2.0000 </r>
       <r>   -11.2026     0.0007     2.0001 </r>
       <r>   -11.1444     0.0041     2.0003 </r>
       <r>   -11.0862     0.0190     2.0014 </r>
       <r>   -11.0280     0.0753     2.0058 </r>
       <r>   -10.9698     0.2524     2.0205 </r>
       <r>   -10.9116     0.7155     2.0621 </r>
       <r>   -10.8534     1.7163     2.1620 </r>
       <r>   -10.7952     3.4839     2.3647 </r>
       <r>   -10.7371     5.9847     2.7129 </r>
       <r>   -10.6789     8.6999     3.2191 </r>
       <r>   -10.6207    10.7026     3.8419 </r>
       <r>   -10.5625    11.1422     4.4902 </r>
       <r>   -10.5043     9.8167     5.0614 </r>
       <r>   -10.4461     7.3193     5.4873 </r>
       <r>   -10.3879     4.6182     5.7561 </r>
       <r>   -10.3297     2.4659     5.8995 </r>
       <r>   -10.2716     1.1142     5.9644 </r>
       <r>   -10.2134     0.4260     5.9892 </r>
       <r>   -10.1552     0.1378     5.9972 </r>
       <r>   -10.0970     0.0377     5.9994 </r>
       <r>   -10.0388     0.0087     5.9999 </r>
       <r>    -9.9806     0.0017     6.0000 </r>
       <r>    -9.9224     0.0003     6.0000 </r>
       <r>    -9.8642     0.0000     6.0000 </r>
       <r>    -9.8061     0.0000     6.0000 </r>
       <r>    -9.7479     0.0000     6.0000 </r>
       <r>    -9.6897     0.0000     6.0000 </r>
       <r>    -9.6315     0.0000     6.0000 </r>
       <r>    -9.5733     0.0000     6.0000 </r>
       <r>    -9.5151     0.0000     6.0000 </r>
       <r>    -9.4569     0.0000     6.0000 </r>
       <r>    -9.3987     0.0000     6.0000 </r>
       <r>    -9.3406     0.0000     6.0000 </r>
       <r>    -9.2824     0.0000     6.0000 </r>
       <r>    -9.2242     0.0000     6.0000 </r>
       <r>    -9.1660     0.0000     6.0000 </r>
       <r>    -9.1078     0.0000     6.0000 </r>
       <r>    -9.0496     0.0000     6.0000 </r>
       <r>    -8.9914     0.0000     6.0000 </r>
       <r>    -8.9332     0.0000     6.0000 </r>
       <r>    -8.8751     0.0000     6.0000 </r>
       <r>    -8.8169     0.0000     6.0000 </r>
       <r>    -8.7587     0.0000     6.0000 </r>
       <r>    -8.7005     0.0000     6.0000 </r>
       <r>    -8.6423     0.0000     6.0000 </r>
       <r>    -8.5841     0.0000     6.0000 </r>
       <r>    -8.5259     0.0000     6.0000 </r>
       <r>    -8.4677     0.0000     6.0000 </r>
       <r>    -8.4096     0.0000     6.0000 </r>
       <r>    -8.3514     0.0000     6.0000 </r>
       <r>    -8.2932     0.0000     6.0000 </r>
       <r>    -8.2350     0.0000     6.0000 </r>
       <r>    -8.1768     0.0000     6.0000 </r>
       <r>    -8.1186     0.0000     6.0000 </r>
       <r>    -8.0604     0.0000     6.0000 </r>
       <r>    -8.0022     0.0000     6.0000 </r>
       <r>    -7.9441     0.0000     6.0000 </r>
       <r>    -7.8859     0.0000     6.0000 </r>
       <r>    -7.8277     0.0000     6.0000 </r>
       <r>    -7.7695     0.0000     6.0000 </r>
       <r>    -7.7113     0.0000     6.0000 </r>
       <r>    -7.6531     0.0000     6.0000 </r>
       <r>    -7.5949     0.0000     6.0000 </r>
       <r>    -7.5367     0.0000     6.0000 </r>
       <r>    -7.4786     0.0000     6.0000 </r>
       <r>    -7.4204     0.0000     6.0000 </r>
       <r>    -7.3622     0.0000     6.0000 </r>
       <r>    -7.3040     0.0000     6.0000 </r>
       <r>    -7.2458     0.0000     6.0000 </r>
       <r>    -7.1876     0.0000     6.0000 </r>
       <r>    -7.1294     0.0000     6.0000 </r>
       <r>    -7.0712     0.0000     6.0000 </r>
       <r>    -7.0131     0.0000     6.0000 </r>
       <r>    -6.9549     0.0000     6.0000 </r>
       <r>    -6.8967     0.0000     6.0000 </r>
       <r>    -6.8385     0.0000     6.0000 </r>
       <r>    -6.7803     0.0000     6.0000 </r>
       <r>    -6.7221     0.0000     6.0000 </r>
       <r>    -6.6639     0.0000     6.0000 </r>
       <r>    -6.6057     0.0000     6.0000 </r>
       <r>    -6.5476     0.0000     6.0000 </r>
       <r>    -6.4894     0.0000     6.0000 </r>
       <r>    -6.4312     0.0000     6.0000 </r>
       <r>    -6.3730     0.0000     6.0000 </r>
       <r>    -6.3148     0.0000     6.0000 </r>
       <r>    -6.2566     0.0000     6.0000 </r>
       <r>    -6.1984     0.0000     6.0000 </r>
       <r>    -6.1402     0.0000     6.0000 </r>
       <r>    -6.0821     0.0000     6.0000 </r>
       <r>    -6.0239     0.0000     6.0000 </r>
       <r>    -5.9657     0.0000     6.0000 </r>
       <r>    -5.9075     0.0000     6.0000 </r>
       <r>    -5.8493     0.0000     6.0000 </r>
       <r>    -5.7911     0.0000     6.0000 </r>
       <r>    -5.7329     0.0000     6.0000 </r>
       <r>    -5.6747     0.0000     6.0000 </r>
       <r>    -5.6166     0.0000     6.0000 </r>
       <r>    -5.5584     0.0001     6.0000 </r>
       <r>    -5.5002     0.0005     6.0000 </r>
       <r>    -5.4420     0.0027     6.0002 </r>
       <r>    -5.3838     0.0131     6.0010 </r>
       <r>    -5.3256     0.0542     6.0041 </r>
       <r>    -5.2674     0.1894     6.0151 </r>
       <r>    -5.2092     0.5599     6.0477 </r>
       <r>    -5.1511     1.4005     6.1292 </r>
       <r>    -5.0929     2.9643     6.3017 </r>
       <r>    -5.0347     5.3093     6.6106 </r>
       <r>    -4.9765     8.0473     7.0789 </r>
       <r>    -4.9183    10.3221     7.6795 </r>
       <r>    -4.8601    11.2046     8.3315 </r>
       <r>    -4.8019    10.2928     8.9304 </r>
       <r>    -4.7437     8.0017     9.3960 </r>
       <r>    -4.6856     5.2642     9.7023 </r>
       <r>    -4.6274     2.9307     9.8728 </r>
       <r>    -4.5692     1.3807     9.9532 </r>
       <r>    -4.5110     0.5505     9.9852 </r>
       <r>    -4.4528     0.1857     9.9960 </r>
       <r>    -4.3946     0.0530     9.9991 </r>
       <r>    -4.3364     0.0128     9.9998 </r>
       <r>    -4.2782     0.0026    10.0000 </r>
       <r>    -4.2201     0.0005    10.0000 </r>
       <r>    -4.1619     0.0001    10.0000 </r>
       <r>    -4.1037     0.0000    10.0000 </r>
       <r>    -4.0455     0.0000    10.0000 </r>
       <r>    -3.9873     0.0000    10.0000 </r>
       <r>    -3.9291     0.0000    10.0000 </r>
       <r>    -3.8709     0.0000    10.0000 </r>
       <r>    -3.8127     0.0000    10.0000 </r>
       <r>    -3.7546     0.0000    10.0000 </r>
       <r>    -3.6964     0.0000    10.0000 </r>
       <r>    -3.6382     0.0000    10.0000 </r>
       <r>    -3.5800     0.0000    10.0000 </r>
       <r>    -3.5218     0.0000    10.0000 </r>
       <r>    -3.4636     0.0000    10.0000 </r>
       <r>    -3.4054     0.0000    10.0000 </r>
       <r>    -3.3472     0.0000    10.0000 </r>
       <r>    -3.2891     0.0000    10.0000 </r>
       <r>    -3.2309     0.0000    10.0000 </r>
       <r>    -3.1727     0.0000    10.0000 </r>
       <r>    -3.1145     0.0000    10.0000 </r>
       <r>    -3.0563     0.0000    10.0000 </r>
       <r>    -2.9981     0.0000    10.0000 </r>
       <r>    -2.9399     0.0000    10.0000 </r>
       <r>    -2.8817     0.0000    10.0000 </r>
       <r>    -2.8236     0.0000    10.0000 </r>
       <r>    -2.7654     0.0000    10.0000 </r>
       <r>    -2.7072     0.0000    10.0000 </r>
       <r>    -2.6490     0.0000    10.0000 </r>
       <r>    -2.5908     0.0000    10.0000 </r>
       <r>    -2.5326     0.0000    10.0000 </r>
       <r>    -2.4744     0.0000    10.0000 </r>
       <r>    -2.4162     0.0000    10.0000 </r>
       <r>    -2.3581     0.0000    10.0000 </r>
       <r>    -2.2999     0.0000    10.0000 </r>
       <r>    -2.2417     0.0000    10.0000 </r>
       <r>    -2.1835     0.0000    10.0000 </r>
       <r>    -2.1253     0.0000    10.0000 </r>
       <r>    -2.0671     0.0000    10.0000 </r>
       <r>    -2.0089     0.0000    10.0000 </r>
       <r>    -1.9507     0.0000    10.0000 </r>
       <r>    -1.8926     0.0000    10.0000 </r>
       <r>    -1.8344     0.0000    10.0000 </r>
       <r>    -1.7762     0.0000    10.0000 </r>
       <r>    -1.7180     0.0000    10.0000 </r>
       <r>    -1.6598     0.0000    10.0000 </r>
       <r>    -1.6016     0.0000    10.0000 </r>
       <r>    -1.5434     0.0000    10.0000 </r>
       <r>    -1.4852     0.0000    10.0000 </r>
       <r>    -1.4271     0.0000    10.0000 </r>
       <r>    -1.3689     0.0000    10.0000 </r>
       <r>    -1.3107     0.0000    10.0000 </r>
       <r>    -1.2525     0.0000    10.0000 </r>
       <r>    -1.1943     0.0000    10.0000 </r>
       <r>    -1.1361     0.0000    10.0000 </r>
       <r>    -1.0779     0.0000    10.0000 </r>
       <r>    -1.0197     0.0000    10.0000 </r>
       <r>    -0.9616     0.0000    10.0000 </r>
       <r>    -0.9034     0.0000    10.0000 </r>
       <r>    -0.8452     0.0000    10.0000 </r>
       <r>    -0.7870     0.0002    10.0000 </r>
       <r>    -0.7288     0.0014    10.0001 </r>
       <r>    -0.6706     0.0075    10.0005 </r>
       <r>    -0.6124     0.0340    10.0025 </r>
       <r>    -0.5542     0.1315    10.0102 </r>
       <r>    -0.4961     0.4301    10.0352 </r>
       <r>    -0.4379     1.1916    10.1045 </r>
       <r>    -0.3797     2.7966    10.2673 </r>
       <r>    -0.3215     5.5605    10.5908 </r>
       <r>    -0.2633     9.3670    11.1358 </r>
       <r>    -0.2051    13.3695    11.9138 </r>
       <r>    -0.1469    16.1689    12.8546 </r>
       <r>    -0.0887    16.5699    13.8188 </r>
       <r>    -0.0306    14.3898    14.6561 </r>
       <r>     0.0276    10.5915    15.2724 </r>
       <r>     0.0858     6.6149    15.6573 </r>
       <r>     0.1440     3.5369    15.8631 </r>
       <r>     0.2022     1.7292    15.9637 </r>
       <r>     0.2604     1.0922    16.0273 </r>
       <r>     0.3186     1.4599    16.1122 </r>
       <r>     0.3768     2.7865    16.2743 </r>
       <r>     0.4349     5.0062    16.5656 </r>
       <r>     0.4931     7.7460    17.0164 </r>
       <r>     0.5513    10.2345    17.6119 </r>
       <r>     0.6095    11.6505    18.2898 </r>
       <r>     0.6677    11.7257    18.9721 </r>
       <r>     0.7259    11.0321    19.6140 </r>
       <r>     0.7841    10.5603    20.2285 </r>
       <r>     0.8423    10.8767    20.8614 </r>
       <r>     0.9004    11.6206    21.5375 </r>
       <r>     0.9586    11.8215    22.2254 </r>
       <r>     1.0168    10.7353    22.8501 </r>
       <r>     1.0750     8.4286    23.3405 </r>
       <r>     1.1332     5.6459    23.6690 </r>
       <r>     1.1914     3.2102    23.8558 </r>
       <r>     1.2496     1.5463    23.9458 </r>
       <r>     1.3078     0.6306    23.9825 </r>
       <r>     1.3659     0.2176    23.9952 </r>
       <r>     1.4241     0.0635    23.9989 </r>
       <r>     1.4823     0.0157    23.9998 </r>
       <r>     1.5405     0.0033    24.0000 </r>
       <r>     1.5987     0.0006    24.0000 </r>
       <r>     1.6569     0.0001    24.0000 </r>
       <r>     1.7151     0.0000    24.0000 </r>
       <r>     1.7733     0.0000    24.0000 </r>
       <r>     1.8314     0.0000    24.0000 </r>
       <r>     1.8896     0.0000    24.0000 </r>
       <r>     1.9478     0.0000    24.0000 </r>
       <r>     2.0060     0.0000    24.0000 </r>
       <r>     2.0642     0.0000    24.0000 </r>
       <r>     2.1224     0.0000    24.0000 </r>
       <r>     2.1806     0.0000    24.0000 </r>
       <r>     2.2388     0.0000    24.0000 </r>
       <r>     2.2969     0.0000    24.0000 </r>
       <r>     2.3551     0.0000    24.0000 </r>
       <r>     2.4133     0.0000    24.0000 </r>
       <r>     2.4715     0.0000    24.0000 </r>
       <r>     2.5297     0.0000    24.0000 </r>
       <r>     2.5879     0.0000    24.0000 </r>
       <r>     2.6461     0.0000    24.0000 </r>
       <r>     2.7043     0.0000    24.0000 </r>
       <r>     2.7624     0.0000    24.0000 </r>
       <r>     2.8206     0.0000    24.0000 </r>
       <r>     2.8788     0.0000    24.0000 </r>
       <r>     2.9370     0.0000    24.0000 </r>
      </set>
     </set>
    </array>
   </total>
  </dos>
 </calculation>
 <structure name="finalpos" >
  <crystal>
   <varray name="basis" >
    <v>      15.00000000       0.00000000       0.00000000 </v>
    <v>       0.00000000      15.00000000       0.00000000 </v>
    <v>       0.00000000       0.00000000       8.80000000 </v>
   </varray>
   <i name="volume">   1980.00000000 </i>
   <varray name="rec_basis" >
    <v>       0.06666667      -0.00000000       0.00000000 </v>
    <v>       0.00000000       0.06666667       0.00000000 </v>
    <v>      -0.00000000      -0.00000000       0.11363636 </v>
   </varray>
  </crystal>
  <varray name="positions" >
   <v>       0.00000000       0.00000000       0.00000000 </v>
   <v>       0.00000000       0.00000000       0.12500000 </v>
   <v>       0.00000000       0.00000000       0.25000000 </v>
   <v>       0.00000000       0.00000000       0.37500000 </v>
   <v>       0.00000000       0.00000000       0.50000000 </v>
   <v>       0.00000000       0.00000000       0.62500000 </v>
   <v>       0.00000000       0.00000000       0.75000000 </v>
   <v>       0.00000000       0.00000000       0.87500000 </v>
  </varray>
 </structure>
</modeling>
