   8   8   0   0
  0.2700000E+03  0.1500000E-08  0.1500000E-08  0.9600000E-09  0.5000000E-15
  1.000000000000000E-004
  CAR 
 unknown system                          
      2.94871295    -13.80843365  301     -5.44106840      1.00000000
    -13.808  0.0000E+00  0.0000E+00  0.0000E+00  0.0000E+00
    -13.753  0.0000E+00  0.0000E+00  0.0000E+00  0.0000E+00
    -13.697  0.0000E+00  0.0000E+00  0.0000E+00  0.0000E+00
    -13.641  0.0000E+00  0.0000E+00  0.0000E+00  0.0000E+00
    -13.585  0.0000E+00  0.0000E+00  0.0000E+00  0.0000E+00
    -13.529  0.0000E+00  0.0000E+00  0.0000E+00  0.0000E+00
    -13.473  0.0000E+00  0.0000E+00  0.0000E+00  0.0000E+00
    -13.417  0.0000E+00  0.0000E+00  0.0000E+00  0.0000E+00
    -13.362  0.0000E+00  0.0000E+00  0.0000E+00  0.0000E+00
    -13.306  0.0000E+00  0.0000E+00  0.0000E+00  0.0000E+00
    -13.250  0.0000E+00  0.0000E+00  0.0000E+00  0.0000E+00
    -13.194  0.0000E+00  0.0000E+00  0.0000E+00  0.0000E+00
    -13.138  0.0000E+00  0.0000E+00  0.0000E+00  0.0000E+00
    -13.082  0.0000E+00  0.0000E+00  0.0000E+00  0.0000E+00
    -13.026  0.0000E+00  0.0000E+00  0.0000E+00  0.0000E+00
    -12.971  0.3975E-14  0.3975E-14  0.2220E-15  0.2220E-15
    -12.915  0.8944E-13  0.8944E-13  0.5218E-14  0.5218E-14
    -12.859  0.1886E-11  0.1884E-11  0.1106E-12  0.1105E-12
    -12.803  0.3429E-10  0.3429E-10  0.2026E-11  0.2026E-11
    -12.747  0.5341E-09  0.5340E-09  0.3186E-10  0.3185E-10
    -12.691  0.7127E-08  0.7126E-08  0.4300E-09  0.4299E-09
    -12.635  0.8149E-07  0.8148E-07  0.4982E-08  0.4981E-08
    -12.580  0.7985E-06  0.7984E-06  0.4958E-07  0.4958E-07
    -12.524  0.6704E-05  0.6703E-05  0.4241E-06  0.4240E-06
    -12.468  0.4824E-04  0.4823E-04  0.3118E-05  0.3118E-05
    -12.412  0.2974E-03  0.2974E-03  0.1973E-04  0.1973E-04
    -12.356  0.1572E-02  0.1572E-02  0.1075E-03  0.1075E-03
    -12.300  0.7120E-02  0.7120E-02  0.5053E-03  0.5052E-03
    -12.244  0.2764E-01  0.2764E-01  0.2049E-02  0.2049E-02
    -12.189  0.9199E-01  0.9199E-01  0.7188E-02  0.7187E-02
    -12.133  0.2624E+00  0.2624E+00  0.2185E-01  0.2184E-01
    -12.077  0.6417E+00  0.6416E+00  0.5769E-01  0.5768E-01
    -12.021  0.1345E+01  0.1345E+01  0.1328E+00  0.1328E+00
    -11.965  0.2417E+01  0.2417E+01  0.2678E+00  0.2678E+00
    -11.909  0.3723E+01  0.3723E+01  0.4757E+00  0.4757E+00
    -11.853  0.4916E+01  0.4916E+01  0.7503E+00  0.7503E+00
    -11.798  0.5565E+01  0.5565E+01  0.1061E+01  0.1061E+01
    -11.742  0.5401E+01  0.5401E+01  0.1363E+01  0.1363E+01
    -11.686  0.4494E+01  0.4494E+01  0.1614E+01  0.1614E+01
    -11.630  0.3205E+01  0.3205E+01  0.1793E+01  0.1793E+01
    -11.574  0.1960E+01  0.1960E+01  0.1902E+01  0.1902E+01
    -11.518  0.1027E+01  0.1027E+01  0.1960E+01  0.1960E+01
    -11.462  0.4616E+00  0.4616E+00  0.1986E+01  0.1986E+01
    -11.407  0.1778E+00  0.1778E+00  0.1996E+01  0.1996E+01
    -11.351  0.5871E-01  0.5871E-01  0.1999E+01  0.1999E+01
    -11.295  0.1662E-01  0.1662E-01  0.2000E+01  0.2000E+01
    -11.239  0.4031E-02  0.4031E-02  0.2000E+01  0.2000E+01
    -11.183  0.8381E-03  0.8382E-03  0.2000E+01  0.2000E+01
    -11.127  0.1494E-03  0.1494E-03  0.2000E+01  0.2000E+01
    -11.071  0.2285E-04  0.2285E-04  0.2000E+01  0.2000E+01
    -11.016  0.3390E-05  0.3390E-05  0.2000E+01  0.2000E+01
    -10.960  0.4060E-05  0.4060E-05  0.2000E+01  0.2000E+01
    -10.904  0.2948E-04  0.2948E-04  0.2000E+01  0.2000E+01
    -10.848  0.1995E-03  0.1995E-03  0.2000E+01  0.2000E+01
    -10.792  0.1159E-02  0.1159E-02  0.2000E+01  0.2000E+01
    -10.736  0.5767E-02  0.5766E-02  0.2000E+01  0.2000E+01
    -10.680  0.2460E-01  0.2460E-01  0.2002E+01  0.2002E+01
    -10.625  0.8994E-01  0.8993E-01  0.2007E+01  0.2007E+01
    -10.569  0.2819E+00  0.2818E+00  0.2023E+01  0.2023E+01
    -10.513  0.7572E+00  0.7571E+00  0.2065E+01  0.2065E+01
    -10.457  0.1744E+01  0.1744E+01  0.2162E+01  0.2162E+01
    -10.401  0.3442E+01  0.3442E+01  0.2354E+01  0.2354E+01
    -10.345  0.5825E+01  0.5825E+01  0.2680E+01  0.2680E+01
    -10.289  0.8450E+01  0.8450E+01  0.3152E+01  0.3152E+01
    -10.234  0.1051E+02  0.1051E+02  0.3739E+01  0.3739E+01
    -10.178  0.1120E+02  0.1120E+02  0.4365E+01  0.4365E+01
    -10.122  0.1024E+02  0.1024E+02  0.4937E+01  0.4937E+01
    -10.066  0.8025E+01  0.8025E+01  0.5385E+01  0.5385E+01
    -10.010  0.5391E+01  0.5391E+01  0.5686E+01  0.5686E+01
     -9.954  0.3104E+01  0.3104E+01  0.5860E+01  0.5860E+01
     -9.898  0.1532E+01  0.1533E+01  0.5945E+01  0.5945E+01
     -9.843  0.6485E+00  0.6485E+00  0.5981E+01  0.5981E+01
     -9.787  0.2352E+00  0.2353E+00  0.5995E+01  0.5995E+01
     -9.731  0.7315E-01  0.7316E-01  0.5999E+01  0.5999E+01
     -9.675  0.1950E-01  0.1950E-01  0.6000E+01  0.6000E+01
     -9.619  0.4454E-02  0.4455E-02  0.6000E+01  0.6000E+01
     -9.563  0.8721E-03  0.8722E-03  0.6000E+01  0.6000E+01
     -9.507  0.1464E-03  0.1464E-03  0.6000E+01  0.6000E+01
     -9.452  0.2105E-04  0.2105E-04  0.6000E+01  0.6000E+01
     -9.396  0.2594E-05  0.2595E-05  0.6000E+01  0.6000E+01
     -9.340  0.2740E-06  0.2741E-06  0.6000E+01  0.6000E+01
     -9.284  0.2480E-07  0.2480E-07  0.6000E+01  0.6000E+01
     -9.228  0.1923E-08  0.1924E-08  0.6000E+01  0.6000E+01
     -9.172  0.1278E-09  0.1278E-09  0.6000E+01  0.6000E+01
     -9.116  0.7283E-11  0.7283E-11  0.6000E+01  0.6000E+01
     -9.061  0.3498E-12  0.3498E-12  0.6000E+01  0.6000E+01
     -9.005  0.1590E-13  0.1590E-13  0.6000E+01  0.6000E+01
     -8.949  0.0000E+00  0.0000E+00  0.6000E+01  0.6000E+01
     -8.893  0.0000E+00  0.0000E+00  0.6000E+01  0.6000E+01
     -8.837  0.0000E+00  0.0000E+00  0.6000E+01  0.6000E+01
     -8.781  0.0000E+00  0.0000E+00  0.6000E+01  0.6000E+01
     -8.725  0.0000E+00  0.0000E+00  0.6000E+01  0.6000E+01
     -8.670  0.0000E+00  0.0000E+00  0.6000E+01  0.6000E+01
     -8.614  0.0000E+00  0.0000E+00  0.6000E+01  0.6000E+01
     -8.558  0.0000E+00  0.0000E+00  0.6000E+01  0.6000E+01
     -8.502  0.0000E+00  0.0000E+00  0.6000E+01  0.6000E+01
     -8.446  0.0000E+00  0.0000E+00  0.6000E+01  0.6000E+01
     -8.390  0.0000E+00  0.0000E+00  0.6000E+01  0.6000E+01
     -8.334  0.0000E+00  0.0000E+00  0.6000E+01  0.6000E+01
     -8.279  0.0000E+00  0.0000E+00  0.6000E+01  0.6000E+01
     -8.223  0.0000E+00  0.0000E+00  0.6000E+01  0.6000E+01
     -8.167  0.0000E+00  0.0000E+00  0.6000E+01  0.6000E+01
     -8.111  0.0000E+00  0.0000E+00  0.6000E+01  0.6000E+01
     -8.055  0.0000E+00  0.0000E+00  0.6000E+01  0.6000E+01
     -7.999  0.0000E+00  0.0000E+00  0.6000E+01  0.6000E+01
     -7.943  0.0000E+00  0.0000E+00  0.6000E+01  0.6000E+01
     -7.888  0.0000E+00  0.0000E+00  0.6000E+01  0.6000E+01
     -7.832  0.0000E+00  0.0000E+00  0.6000E+01  0.6000E+01
     -7.776  0.0000E+00  0.0000E+00  0.6000E+01  0.6000E+01
     -7.720  0.0000E+00  0.0000E+00  0.6000E+01  0.6000E+01
     -7.664  0.0000E+00  0.0000E+00  0.6000E+01  0.6000E+01
     -7.608  0.0000E+00  0.0000E+00  0.6000E+01  0.6000E+01
     -7.552  0.0000E+00  0.0000E+00  0.6000E+01  0.6000E+01
     -7.497  0.0000E+00  0.0000E+00  0.6000E+01  0.6000E+01
     -7.441  0.0000E+00  0.0000E+00  0.6000E+01  0.6000E+01
     -7.385  0.0000E+00  0.0000E+00  0.6000E+01  0.6000E+01
     -7.329  0.0000E+00  0.0000E+00  0.6000E+01  0.6000E+01
     -7.273  0.0000E+00  0.0000E+00  0.6000E+01  0.6000E+01
     -7.217  0.0000E+00  0.0000E+00  0.6000E+01  0.6000E+01
     -7.161  0.0000E+00  0.0000E+00  0.6000E+01  0.6000E+01
     -7.106  0.0000E+00  0.0000E+00  0.6000E+01  0.6000E+01
     -7.050  0.0000E+00  0.0000E+00  0.6000E+01  0.6000E+01
     -6.994  0.0000E+00  0.0000E+00  0.6000E+01  0.6000E+01
     -6.938  0.0000E+00  0.0000E+00  0.6000E+01  0.6000E+01
     -6.882  0.0000E+00  0.0000E+00  0.6000E+01  0.6000E+01
     -6.826  0.0000E+00  0.0000E+00  0.6000E+01  0.6000E+01
     -6.770  0.0000E+00  0.0000E+00  0.6000E+01  0.6000E+01
     -6.715  0.0000E+00  0.0000E+00  0.6000E+01  0.6000E+01
     -6.659  0.0000E+00  0.0000E+00  0.6000E+01  0.6000E+01
     -6.603  0.7950E-14  0.7950E-14  0.6000E+01  0.6000E+01
     -6.547  0.1829E-12  0.1829E-12  0.6000E+01  0.6000E+01
     -6.491  0.3844E-11  0.3842E-11  0.6000E+01  0.6000E+01
     -6.435  0.6982E-10  0.6981E-10  0.6000E+01  0.6000E+01
     -6.379  0.1086E-08  0.1086E-08  0.6000E+01  0.6000E+01
     -6.324  0.1448E-07  0.1448E-07  0.6000E+01  0.6000E+01
     -6.268  0.1654E-06  0.1654E-06  0.6000E+01  0.6000E+01
     -6.212  0.1619E-05  0.1619E-05  0.6000E+01  0.6000E+01
     -6.156  0.1358E-04  0.1358E-04  0.6000E+01  0.6000E+01
     -6.100  0.9764E-04  0.9763E-04  0.6000E+01  0.6000E+01
     -6.044  0.6015E-03  0.6014E-03  0.6000E+01  0.6000E+01
     -5.988  0.3176E-02  0.3175E-02  0.6000E+01  0.6000E+01
     -5.933  0.1437E-01  0.1437E-01  0.6001E+01  0.6001E+01
     -5.877  0.5574E-01  0.5573E-01  0.6004E+01  0.6004E+01
     -5.821  0.1853E+00  0.1853E+00  0.6014E+01  0.6014E+01
     -5.765  0.5281E+00  0.5280E+00  0.6044E+01  0.6044E+01
     -5.709  0.1290E+01  0.1290E+01  0.6116E+01  0.6116E+01
     -5.653  0.2701E+01  0.2701E+01  0.6267E+01  0.6267E+01
     -5.597  0.4849E+01  0.4849E+01  0.6538E+01  0.6538E+01
     -5.542  0.7462E+01  0.7462E+01  0.6955E+01  0.6955E+01
     -5.486  0.9844E+01  0.9844E+01  0.7504E+01  0.7504E+01
     -5.430  0.1113E+02  0.1113E+02  0.8126E+01  0.8126E+01
     -5.374  0.1079E+02  0.1080E+02  0.8729E+01  0.8729E+01
     -5.318  0.8973E+01  0.8973E+01  0.9231E+01  0.9231E+01
     -5.262  0.6394E+01  0.6394E+01  0.9588E+01  0.9588E+01
     -5.206  0.3906E+01  0.3906E+01  0.9806E+01  0.9806E+01
     -5.151  0.2045E+01  0.2045E+01  0.9920E+01  0.9920E+01
     -5.095  0.9181E+00  0.9182E+00  0.9971E+01  0.9971E+01
     -5.039  0.3533E+00  0.3533E+00  0.9991E+01  0.9991E+01
     -4.983  0.1165E+00  0.1166E+00  0.9998E+01  0.9998E+01
     -4.927  0.3295E-01  0.3295E-01  0.9999E+01  0.9999E+01
     -4.871  0.7986E-02  0.7987E-02  0.1000E+02  0.1000E+02
     -4.815  0.1659E-02  0.1659E-02  0.1000E+02  0.1000E+02
     -4.760  0.2953E-03  0.2954E-03  0.1000E+02  0.1000E+02
     -4.704  0.4506E-04  0.4507E-04  0.1000E+02  0.1000E+02
     -4.648  0.5892E-05  0.5893E-05  0.1000E+02  0.1000E+02
     -4.592  0.6602E-06  0.6603E-06  0.1000E+02  0.1000E+02
     -4.536  0.6340E-07  0.6341E-07  0.1000E+02  0.1000E+02
     -4.480  0.5216E-08  0.5217E-08  0.1000E+02  0.1000E+02
     -4.424  0.3677E-09  0.3678E-09  0.1000E+02  0.1000E+02
     -4.369  0.2221E-10  0.2221E-10  0.1000E+02  0.1000E+02
     -4.313  0.1157E-11  0.1161E-11  0.1000E+02  0.1000E+02
     -4.257  0.4770E-13  0.4770E-13  0.1000E+02  0.1000E+02
     -4.201  0.0000E+00  0.0000E+00  0.1000E+02  0.1000E+02
     -4.145  0.0000E+00  0.0000E+00  0.1000E+02  0.1000E+02
     -4.089  0.0000E+00  0.0000E+00  0.1000E+02  0.1000E+02
     -4.033  0.0000E+00  0.0000E+00  0.1000E+02  0.1000E+02
     -3.978  0.0000E+00  0.0000E+00  0.1000E+02  0.1000E+02
     -3.922  0.0000E+00  0.0000E+00  0.1000E+02  0.1000E+02
     -3.866  0.0000E+00  0.0000E+00  0.1000E+02  0.1000E+02
     -3.810  0.0000E+00  0.0000E+00  0.1000E+02  0.1000E+02
     -3.754  0.0000E+00  0.0000E+00  0.1000E+02  0.1000E+02
     -3.698  0.0000E+00  0.0000E+00  0.1000E+02  0.1000E+02
     -3.642  0.0000E+00  0.0000E+00  0.1000E+02  0.1000E+02
     -3.587  0.0000E+00  0.0000E+00  0.1000E+02  0.1000E+02
     -3.531  0.0000E+00  0.0000E+00  0.1000E+02  0.1000E+02
     -3.475  0.0000E+00  0.0000E+00  0.1000E+02  0.1000E+02
     -3.419  0.0000E+00  0.0000E+00  0.1000E+02  0.1000E+02
     -3.363  0.0000E+00  0.0000E+00  0.1000E+02  0.1000E+02
     -3.307  0.0000E+00  0.0000E+00  0.1000E+02  0.1000E+02
     -3.251  0.0000E+00  0.0000E+00  0.1000E+02  0.1000E+02
     -3.196  0.0000E+00  0.0000E+00  0.1000E+02  0.1000E+02
     -3.140  0.0000E+00  0.0000E+00  0.1000E+02  0.1000E+02
     -3.084  0.0000E+00  0.0000E+00  0.1000E+02  0.1000E+02
     -3.028  0.0000E+00  0.0000E+00  0.1000E+02  0.1000E+02
     -2.972  0.0000E+00  0.0000E+00  0.1000E+02  0.1000E+02
     -2.916  0.0000E+00  0.0000E+00  0.1000E+02  0.1000E+02
     -2.860  0.0000E+00  0.0000E+00  0.1000E+02  0.1000E+02
     -2.805  0.0000E+00  0.0000E+00  0.1000E+02  0.1000E+02
     -2.749  0.0000E+00  0.0000E+00  0.1000E+02  0.1000E+02
     -2.693  0.0000E+00  0.0000E+00  0.1000E+02  0.1000E+02
     -2.637  0.0000E+00  0.0000E+00  0.1000E+02  0.1000E+02
     -2.581  0.0000E+00  0.0000E+00  0.1000E+02  0.1000E+02
     -2.525  0.0000E+00  0.0000E+00  0.1000E+02  0.1000E+02
     -2.469  0.0000E+00  0.0000E+00  0.1000E+02  0.1000E+02
     -2.414  0.0000E+00  0.0000E+00  0.1000E+02  0.1000E+02
     -2.358  0.0000E+00  0.0000E+00  0.1000E+02  0.1000E+02
     -2.302  0.0000E+00  0.0000E+00  0.1000E+02  0.1000E+02
     -2.246  0.0000E+00  0.0000E+00  0.1000E+02  0.1000E+02
     -2.190  0.0000E+00  0.0000E+00  0.1000E+02  0.1000E+02
     -2.134  0.0000E+00  0.0000E+00  0.1000E+02  0.1000E+02
     -2.078  0.0000E+00  0.0000E+00  0.1000E+02  0.1000E+02
     -2.023  0.0000E+00  0.0000E+00  0.1000E+02  0.1000E+02
     -1.967  0.0000E+00  0.0000E+00  0.1000E+02  0.1000E+02
     -1.911  0.0000E+00  0.0000E+00  0.1000E+02  0.1000E+02
     -1.855  0.0000E+00  0.0000E+00  0.1000E+02  0.1000E+02
     -1.799  0.0000E+00  0.0000E+00  0.1000E+02  0.1000E+02
     -1.743  0.0000E+00  0.0000E+00  0.1000E+02  0.1000E+02
     -1.687  0.0000E+00  0.0000E+00  0.1000E+02  0.1000E+02
     -1.632  0.0000E+00  0.0000E+00  0.1000E+02  0.1000E+02
     -1.576  0.0000E+00  0.0000E+00  0.1000E+02  0.1000E+02
     -1.520  0.0000E+00  0.0000E+00  0.1000E+02  0.1000E+02
     -1.464  0.0000E+00  0.0000E+00  0.1000E+02  0.1000E+02
     -1.408  0.0000E+00  0.0000E+00  0.1000E+02  0.1000E+02
     -1.352  0.0000E+00  0.0000E+00  0.1000E+02  0.1000E+02
     -1.296  0.2981E-13  0.2981E-13  0.1000E+02  0.1000E+02
     -1.241  0.6360E-12  0.6539E-12  0.1000E+02  0.1000E+02
     -1.185  0.1282E-10  0.1315E-10  0.1000E+02  0.1000E+02
     -1.129  0.2208E-09  0.2260E-09  0.1000E+02  0.1000E+02
     -1.073  0.3262E-08  0.3333E-08  0.1000E+02  0.1000E+02
     -1.017  0.4132E-07  0.4213E-07  0.1000E+02  0.1000E+02
     -0.961  0.4488E-06  0.4568E-06  0.1000E+02  0.1000E+02
     -0.905  0.4180E-05  0.4248E-05  0.1000E+02  0.1000E+02
     -0.850  0.3341E-04  0.3389E-04  0.1000E+02  0.1000E+02
     -0.794  0.2290E-03  0.2319E-03  0.1000E+02  0.1000E+02
     -0.738  0.1347E-02  0.1362E-02  0.1000E+02  0.1000E+02
     -0.682  0.6800E-02  0.6864E-02  0.1000E+02  0.1000E+02
     -0.626  0.2946E-01  0.2969E-01  0.1000E+02  0.1000E+02
     -0.570  0.1095E+00  0.1103E+00  0.1001E+02  0.1001E+02
     -0.514  0.3497E+00  0.3515E+00  0.1003E+02  0.1003E+02
     -0.459  0.9585E+00  0.9623E+00  0.1008E+02  0.1008E+02
     -0.403  0.2256E+01  0.2262E+01  0.1021E+02  0.1021E+02
     -0.347  0.4561E+01  0.4569E+01  0.1046E+02  0.1046E+02
     -0.291  0.7919E+01  0.7926E+01  0.1090E+02  0.1091E+02
     -0.235  0.1181E+02  0.1181E+02  0.1156E+02  0.1157E+02
     -0.179  0.1514E+02  0.1513E+02  0.1241E+02  0.1241E+02
     -0.123  0.1666E+02  0.1665E+02  0.1334E+02  0.1334E+02
     -0.068  0.1577E+02  0.1576E+02  0.1422E+02  0.1422E+02
     -0.012  0.1282E+02  0.1281E+02  0.1494E+02  0.1494E+02
      0.044  0.8964E+01  0.8960E+01  0.1544E+02  0.1544E+02
      0.100  0.5406E+01  0.5405E+01  0.1574E+02  0.1574E+02
      0.156  0.2870E+01  0.2868E+01  0.1590E+02  0.1590E+02
      0.212  0.1518E+01  0.1509E+01  0.1599E+02  0.1598E+02
      0.268  0.1229E+01  0.1204E+01  0.1605E+02  0.1605E+02
      0.323  0.1886E+01  0.1833E+01  0.1616E+02  0.1615E+02
      0.379  0.3441E+01  0.3352E+01  0.1635E+02  0.1634E+02
      0.435  0.5746E+01  0.5624E+01  0.1667E+02  0.1666E+02
      0.491  0.8342E+01  0.8210E+01  0.1714E+02  0.1711E+02
      0.547  0.1048E+02  0.1038E+02  0.1772E+02  0.1769E+02
      0.603  0.1148E+02  0.1143E+02  0.1836E+02  0.1833E+02
      0.659  0.1120E+02  0.1121E+02  0.1899E+02  0.1896E+02
      0.714  0.1025E+02  0.1028E+02  0.1956E+02  0.1953E+02
      0.770  0.9572E+01  0.9579E+01  0.2010E+02  0.2007E+02
      0.826  0.9797E+01  0.9760E+01  0.2064E+02  0.2061E+02
      0.882  0.1075E+02  0.1069E+02  0.2124E+02  0.2121E+02
      0.938  0.1157E+02  0.1155E+02  0.2189E+02  0.2186E+02
      0.994  0.1136E+02  0.1141E+02  0.2253E+02  0.2249E+02
      1.050  0.9806E+01  0.9923E+01  0.2307E+02  0.2305E+02
      1.105  0.7323E+01  0.7471E+01  0.2348E+02  0.2346E+02
      1.161  0.4705E+01  0.4839E+01  0.2375E+02  0.2373E+02
      1.217  0.2594E+01  0.2691E+01  0.2389E+02  0.2388E+02
      1.273  0.1227E+01  0.1283E+01  0.2396E+02  0.2396E+02
      1.329  0.4975E+00  0.5248E+00  0.2399E+02  0.2399E+02
      1.385  0.1729E+00  0.1840E+00  0.2400E+02  0.2400E+02
      1.441  0.5152E-01  0.5528E-01  0.2400E+02  0.2400E+02
      1.496  0.1316E-01  0.1424E-01  0.2400E+02  0.2400E+02
      1.552  0.2881E-02  0.3144E-02  0.2400E+02  0.2400E+02
      1.608  0.5405E-03  0.5948E-03  0.2400E+02  0.2400E+02
      1.664  0.8691E-04  0.9646E-04  0.2400E+02  0.2400E+02
      1.720  0.1198E-04  0.1341E-04  0.2400E+02  0.2400E+02
      1.776  0.1414E-05  0.1597E-05  0.2400E+02  0.2400E+02
      1.832  0.1431E-06  0.1630E-06  0.2400E+02  0.2400E+02
      1.887  0.1241E-07  0.1425E-07  0.2400E+02  0.2400E+02
      1.943  0.9223E-09  0.1068E-08  0.2400E+02  0.2400E+02
      1.999  0.5872E-10  0.6857E-10  0.2400E+02  0.2400E+02
      2.055  0.3196E-11  0.3769E-11  0.2400E+02  0.2400E+02
      2.111  0.1511E-12  0.1829E-12  0.2400E+02  0.2400E+02
      2.167  0.7950E-14  0.7950E-14  0.2400E+02  0.2400E+02
      2.223  0.0000E+00  0.0000E+00  0.2400E+02  0.2400E+02
      2.278  0.0000E+00  0.0000E+00  0.2400E+02  0.2400E+02
      2.334  0.0000E+00  0.0000E+00  0.2400E+02  0.2400E+02
      2.390  0.0000E+00  0.0000E+00  0.2400E+02  0.2400E+02
      2.446  0.0000E+00  0.0000E+00  0.2400E+02  0.2400E+02
      2.502  0.0000E+00  0.0000E+00  0.2400E+02  0.2400E+02
      2.558  0.0000E+00  0.0000E+00  0.2400E+02  0.2400E+02
      2.614  0.0000E+00  0.0000E+00  0.2400E+02  0.2400E+02
      2.669  0.0000E+00  0.0000E+00  0.2400E+02  0.2400E+02
      2.725  0.0000E+00  0.0000E+00  0.2400E+02  0.2400E+02
      2.781  0.0000E+00  0.0000E+00  0.2400E+02  0.2400E+02
      2.837  0.0000E+00  0.0000E+00  0.2400E+02  0.2400E+02
      2.893  0.0000E+00  0.0000E+00  0.2400E+02  0.2400E+02
      2.949  0.0000E+00  0.0000E+00  0.2400E+02  0.2400E+02
