    8    8    1    2
  0.2700000E+03  0.1500000E-08  0.1500000E-08  0.9600000E-09  0.5000000E-15
  1.000000000000000E-004
  CAR 
 unknown system                          
      8      1     12
 
  0.0000000E+00  0.0000000E+00  0.0000000E+00  0.1000000E+01
    1      -11.808434    -11.808430   1.000000   1.000000
    2      -10.210329    -10.210326   1.000000   1.000000
    3      -10.210329    -10.210326   1.000000   1.000000
    4       -5.441073     -5.441069   0.500002   0.500002
    5       -5.441071     -5.441068   0.499998   0.499998
    6       -0.156218     -0.156795   0.000000   0.000000
    7       -0.156217     -0.156793   0.000000   0.000000
    8       -0.118769     -0.117819   0.000000   0.000000
    9        0.552549      0.553192   0.000000   0.000000
   10        0.592674      0.597570   0.000000   0.000000
   11        0.945642      0.948705   0.000000   0.000000
   12        0.945646      0.948713   0.000000   0.000000
