       N       E                     dE             d eps       ncg     rms          rms(c)
DAV:   1    -0.396301350267E+01   -0.39630E+01   -0.11370E+03    64   0.171E+02
DAV:   2    -0.203262266588E+02   -0.16363E+02   -0.16335E+02    80   0.547E+01
DAV:   3    -0.208575116045E+02   -0.53128E+00   -0.31802E+00    56   0.924E+00
DAV:   4    -0.208724069498E+02   -0.14895E-01   -0.14653E-01    64   0.144E+00
DAV:   5    -0.208725733205E+02   -0.16637E-03   -0.16636E-03    96   0.138E-01    0.301E+00
DAV:   6    -0.206866999847E+02    0.18587E+00   -0.54907E-02    56   0.988E-01    0.182E+00
DAV:   7    -0.205229114955E+02    0.16379E+00   -0.18487E-01    60   0.179E+00    0.234E-01
DAV:   8    -0.205216839570E+02    0.12275E-02   -0.48825E-03    52   0.370E-01    0.727E-02
DAV:   9    -0.205216286867E+02    0.55270E-04   -0.80720E-04    60   0.116E-01    0.397E-02
DAV:  10    -0.205239262980E+02   -0.22976E-02   -0.76403E-04    48   0.124E-01    0.157E-02
DAV:  11    -0.205275308789E+02   -0.36046E-02   -0.53160E-04    48   0.907E-02    0.989E-03
DAV:  12    -0.205285503423E+02   -0.10195E-02   -0.13135E-04    48   0.446E-02    0.616E-03
DAV:  13    -0.205288626938E+02   -0.31235E-03   -0.42963E-06    48   0.103E-02    0.387E-03
DAV:  14    -0.205292887916E+02   -0.42610E-03   -0.17735E-05    48   0.178E-02    0.225E-03
DAV:  15    -0.205293192672E+02   -0.30476E-04   -0.22937E-07    56   0.255E-03    0.136E-03
DAV:  16    -0.205293826143E+02   -0.63347E-04   -0.12281E-06    48   0.487E-03    0.836E-04
DAV:  17    -0.205293833433E+02   -0.72898E-06   -0.47870E-08    48   0.106E-03
   1 F= -.20529383E+02 E0= -.20416545E+02  d E =-.225676E+00  mag=    -0.0000
