<?xml version="1.0" encoding="ISO-8859-1"?>
<modeling>
 <generator>
  <i name="program" type="string">vasp </i>
  <i name="version" type="string">5.4.4.18Apr17-6-g9f103f2a35  </i>
  <i name="subversion" type="string">(build Aug 24 2024 05:40:03) complex            parallel </i>
  <i name="platform" type="string">IFC22_IMPI </i>
  <i name="date" type="string">2024 11 22 </i>
  <i name="time" type="string">21:40:00 </i>
 </generator>
 <incar>
  <i type="string" name="PREC">normal</i>
  <i type="int" name="ISPIN">     2</i>
  <i type="int" name="ICHARG">     2</i>
  <i type="int" name="NELM">   100</i>
  <i name="EDIFF">      0.00000100</i>
  <i type="int" name="NSW">     0</i>
  <i name="ENCUT">    300.00000000</i>
  <i name="NUPDOWN">      0.00000000</i>
  <i type="int" name="ISMEAR">     0</i>
  <i name="SIGMA">      0.20000000</i>
  <i type="logical" name="LWAVE"> F  </i>
  <i type="logical" name="LCHARG"> F  </i>
  <v type="int" name="KPOINT_BSE">    -1     0     0     0</v>
  <i type="int" name="NELM">   100</i>
 </incar>
 <structure name="primitive_cell" >
  <crystal>
   <varray name="basis" >
    <v>      15.00000000       0.00000000       0.00000000 </v>
    <v>       0.00000000      15.00000000       0.00000000 </v>
    <v>       0.00000000       0.00000000       1.20000000 </v>
   </varray>
   <i name="volume">    270.00000000 </i>
   <varray name="rec_basis" >
    <v>       0.06666667      -0.00000000       0.00000000 </v>
    <v>       0.00000000       0.06666667       0.00000000 </v>
    <v>      -0.00000000      -0.00000000       0.83333333 </v>
   </varray>
  </crystal>
  <varray name="positions" >
   <v>       0.00000000       0.00000000       0.00000000 </v>
  </varray>
 </structure>
 <varray name="primitive_index" >
  <v type="int" >        1 </v>
 </varray>
 <kpoints>
  <generation param="Gamma">
   <v type="int" name="divisions">       1        1        1 </v>
   <v name="usershift">      0.00000000       0.00000000       0.00000000 </v>
   <v name="genvec1">      1.00000000      -0.00000000       0.00000000 </v>
   <v name="genvec2">      0.00000000       1.00000000       0.00000000 </v>
   <v name="genvec3">      0.00000000       0.00000000       1.00000000 </v>
   <v name="shift">      0.00000000       0.00000000       0.00000000 </v>
  </generation>
  <varray name="kpointlist" >
   <v>       0.00000000       0.00000000       0.00000000 </v>
  </varray>
  <varray name="weights" >
   <v>       1.00000000 </v>
  </varray>
 </kpoints>
 <parameters>
  <separator name="general" >
   <i type="string" name="SYSTEM">unknown system</i>
   <i type="logical" name="LCOMPAT"> F  </i>
  </separator>
  <separator name="electronic" >
   <i type="string" name="PREC">normal</i>
   <i name="ENMAX">    300.00000000</i>
   <i name="ENAUG">    400.00000000</i>
   <i name="EDIFF">      0.00000100</i>
   <i type="int" name="IALGO">    38</i>
   <i type="int" name="IWAVPR">    10</i>
   <i type="int" name="NBANDS">    12</i>
   <i name="NELECT">      8.00000000</i>
   <i type="int" name="TURBO">     0</i>
   <i type="int" name="IRESTART">     0</i>
   <i type="int" name="NREBOOT">     0</i>
   <i type="int" name="NMIN">     0</i>
   <i name="EREF">      0.00000000</i>
   <separator name="electronic smearing" >
    <i type="int" name="ISMEAR">     0</i>
    <i name="SIGMA">      0.20000000</i>
    <i name="KSPACING">      0.50000000</i>
    <i type="logical" name="KGAMMA"> T  </i>
   </separator>
   <separator name="electronic projectors" >
    <i type="logical" name="LREAL"> F  </i>
    <v name="ROPT">      0.00000000</v>
    <i type="int" name="LMAXPAW">  -100</i>
    <i type="int" name="LMAXMIX">     2</i>
    <i type="logical" name="NLSPLINE"> F  </i>
   </separator>
   <separator name="electronic startup" >
    <i type="int" name="ISTART">     0</i>
    <i type="int" name="ICHARG">     2</i>
    <i type="int" name="INIWAV">     1</i>
   </separator>
   <separator name="electronic spin" >
    <i type="int" name="ISPIN">     2</i>
    <i type="logical" name="LNONCOLLINEAR"> F  </i>
    <v name="MAGMOM">      0.00000000      0.00000000      0.00000000      0.00000000      0.00000000      0.00000000      0.00000000      0.00000000</v>
    <i name="NUPDOWN">      0.00000000</i>
    <i type="logical" name="LSORBIT"> F  </i>
    <v name="SAXIS">      0.00000000      0.00000000      1.00000000</v>
    <i type="logical" name="LSPIRAL"> F  </i>
    <v name="QSPIRAL">      0.00000000      0.00000000      0.00000000</v>
    <i type="logical" name="LZEROZ"> F  </i>
   </separator>
   <separator name="electronic exchange-correlation" >
    <i type="logical" name="LASPH"> F  </i>
    <i type="logical" name="LMETAGGA"> F  </i>
   </separator>
   <separator name="electronic convergence" >
    <i type="int" name="NELM">   100</i>
    <i type="int" name="NELMDL">    -5</i>
    <i type="int" name="NELMIN">     2</i>
    <i name="ENINI">    300.00000000</i>
    <separator name="electronic convergence detail" >
     <i type="logical" name="LDIAG"> T  </i>
     <i type="logical" name="LSUBROT"> F  </i>
     <i name="WEIMIN">      0.00000000</i>
     <i name="EBREAK">      0.00000002</i>
     <i name="DEPER">      0.30000000</i>
     <i type="int" name="NRMM">     4</i>
     <i name="TIME">      0.40000000</i>
    </separator>
   </separator>
   <separator name="electronic mixer" >
    <i name="AMIX">      0.40000000</i>
    <i name="BMIX">      1.00000000</i>
    <i name="AMIN">      0.10000000</i>
    <i name="AMIX_MAG">      1.60000000</i>
    <i name="BMIX_MAG">      1.00000000</i>
    <separator name="electronic mixer details" >
     <i type="int" name="IMIX">     4</i>
     <i type="logical" name="MIXFIRST"> F  </i>
     <i type="int" name="MAXMIX">   -45</i>
     <i name="WC">    100.00000000</i>
     <i type="int" name="INIMIX">     1</i>
     <i type="int" name="MIXPRE">     1</i>
     <i type="int" name="MREMOVE">     5</i>
    </separator>
   </separator>
   <separator name="electronic dipolcorrection" >
    <i type="logical" name="LDIPOL"> F  </i>
    <i type="logical" name="LMONO"> F  </i>
    <i type="int" name="IDIPOL">     0</i>
    <i name="EPSILON">      1.00000000</i>
    <v name="DIPOL">   -100.00000000   -100.00000000   -100.00000000</v>
    <i name="EFIELD">      0.00000000</i>
   </separator>
  </separator>
  <separator name="grids" >
   <i type="int" name="NGX">    64</i>
   <i type="int" name="NGY">    64</i>
   <i type="int" name="NGZ">    42</i>
   <i type="int" name="NGXF">   128</i>
   <i type="int" name="NGYF">   128</i>
   <i type="int" name="NGZF">    84</i>
   <i type="logical" name="ADDGRID"> F  </i>
  </separator>
  <separator name="ionic" >
   <i type="int" name="NSW">     0</i>
   <i type="int" name="IBRION">    -1</i>
   <i type="int" name="MDALGO">     0</i>
   <i type="int" name="ISIF">     2</i>
   <i name="PSTRESS">      0.00000000</i>
   <i name="EDIFFG">      0.00001000</i>
   <i type="int" name="NFREE">     0</i>
   <i name="POTIM">      0.50000000</i>
   <i name="SMASS">     -3.00000000</i>
   <i name="SCALEE">      1.00000000</i>
  </separator>
  <separator name="ionic md" >
   <i name="TEBEG">      0.00010000</i>
   <i name="TEEND">      0.00010000</i>
   <i type="int" name="NBLOCK">     1</i>
   <i type="int" name="KBLOCK">     1</i>
   <i type="int" name="NPACO">   256</i>
   <i name="APACO">     16.00000000</i>
  </separator>
  <separator name="symmetry" >
   <i type="int" name="ISYM">     2</i>
   <i name="SYMPREC">      0.00001000</i>
  </separator>
  <separator name="dos" >
   <i type="int" name="LORBIT">     0</i>
   <v name="RWIGS">     -1.00000000</v>
   <i type="int" name="NEDOS">   301</i>
   <i name="EMIN">     10.00000000</i>
   <i name="EMAX">    -10.00000000</i>
   <i name="EFERMI">      0.00000000</i>
  </separator>
  <separator name="writing" >
   <i type="int" name="NWRITE">     2</i>
   <i type="logical" name="LWAVE"> F  </i>
   <i type="logical" name="LDOWNSAMPLE"> F  </i>
   <i type="logical" name="LCHARG"> F  </i>
   <i type="logical" name="LPARD"> F  </i>
   <i type="logical" name="LVTOT"> F  </i>
   <i type="logical" name="LVHAR"> F  </i>
   <i type="logical" name="LELF"> F  </i>
   <i type="logical" name="LOPTICS"> F  </i>
   <v name="STM">      0.00000000      0.00000000      0.00000000      0.00000000      0.00000000      0.00000000      0.00000000</v>
  </separator>
  <separator name="performance" >
   <i type="int" name="NPAR">     4</i>
   <i type="int" name="NSIM">     4</i>
   <i type="int" name="NBLK">    -1</i>
   <i type="logical" name="LPLANE"> T  </i>
   <i type="logical" name="LSCALAPACK"> T  </i>
   <i type="logical" name="LSCAAWARE"> F  </i>
   <i type="logical" name="LSCALU"> F  </i>
   <i type="logical" name="LASYNC"> F  </i>
   <i type="logical" name="LORBITALREAL"> F  </i>
  </separator>
  <separator name="miscellaneous" >
   <i type="int" name="IDIOT">     3</i>
   <i type="int" name="ISPECIAL">     0</i>
   <i type="logical" name="LMUSIC"> F  </i>
   <v name="POMASS">      1.00000000</v>
   <v name="DARWINR">      0.00000000</v>
   <v name="DARWINV">      1.00000000</v>
   <i type="logical" name="LCORR"> T  </i>
  </separator>
  <i type="logical" name="GGA_COMPAT"> T  </i>
  <i type="logical" name="LBERRY"> F  </i>
  <i type="int" name="ICORELEVEL">     0</i>
  <i type="logical" name="LDAU"> F  </i>
  <i type="int" name="I_CONSTRAINED_M">     0</i>
  <separator name="electronic exchange-correlation" >
   <i type="string" name="GGA">--</i>
   <i type="int" name="VOSKOWN">     0</i>
   <i type="logical" name="LHFCALC"> F  </i>
   <i type="string" name="PRECFOCK"></i>
   <i type="logical" name="LSYMGRAD"> F  </i>
   <i type="logical" name="LHFONE"> F  </i>
   <i type="logical" name="LRHFCALC"> F  </i>
   <i type="logical" name="LTHOMAS"> F  </i>
   <i type="logical" name="LMODELHF"> F  </i>
   <i name="ENCUT4O">     -1.00000000</i>
   <i type="int" name="EXXOEP">     0</i>
   <i type="int" name="FOURORBIT">     0</i>
   <i name="AEXX">      0.00000000</i>
   <i name="HFALPHA">      0.00000000</i>
   <i name="MCALPHA">      0.00000000</i>
   <i name="ALDAX">      1.00000000</i>
   <i name="AGGAX">      1.00000000</i>
   <i name="ALDAC">      1.00000000</i>
   <i name="AGGAC">      1.00000000</i>
   <i type="int" name="NKREDX">     1</i>
   <i type="int" name="NKREDY">     1</i>
   <i type="int" name="NKREDZ">     1</i>
   <i type="logical" name="SHIFTRED"> F  </i>
   <i type="logical" name="ODDONLY"> F  </i>
   <i type="logical" name="EVENONLY"> F  </i>
   <i type="int" name="LMAXFOCK">     0</i>
   <i type="int" name="NMAXFOCKAE">     0</i>
   <i type="logical" name="LFOCKAEDFT"> F  </i>
   <i name="HFSCREEN">      0.00000000</i>
   <i name="HFSCREENC">      0.00000000</i>
   <i type="int" name="NBANDSGWLOW">     0</i>
  </separator>
  <separator name="vdW DFT" >
   <i type="logical" name="LUSE_VDW"> F  </i>
   <i name="Zab_VDW">     -0.84910000</i>
   <i name="PARAM1">      0.12340000</i>
   <i name="PARAM2">      1.00000000</i>
   <i name="PARAM3">      0.00000000</i>
  </separator>
  <separator name="model GW" >
   <i type="int" name="MODEL_GW">     0</i>
   <i name="MODEL_EPS0">    162.00000000</i>
   <i name="MODEL_ALPHA">      1.00000000</i>
  </separator>
  <separator name="linear response parameters" >
   <i type="logical" name="LEPSILON"> F  </i>
   <i type="logical" name="LRPA"> F  </i>
   <i type="logical" name="LNABLA"> F  </i>
   <i type="logical" name="LVEL"> F  </i>
   <i type="int" name="KINTER">     0</i>
   <i name="CSHIFT">      0.10000000</i>
   <i name="OMEGAMAX">     -1.00000000</i>
   <i name="DEG_THRESHOLD">      0.00200000</i>
   <i name="RTIME">     -0.10000000</i>
   <i name="WPLASMAI">      0.00000000</i>
   <v name="DFIELD">      0.00000000      0.00000000      0.00000000</v>
   <v name="WPLASMA">      0.00000000      0.00000000      0.00000000      0.00000000      0.00000000      0.00000000      0.00000000      0.00000000      0.00000000</v>
  </separator>
  <separator name="orbital magnetization" >
   <i type="logical" name="NUCIND"> F  </i>
   <v name="MAGPOS">      0.00000000      0.00000000      0.00000000</v>
   <i type="logical" name="LNICSALL"> T  </i>
   <i type="logical" name="ORBITALMAG"> F  </i>
   <i type="logical" name="LMAGBLOCH"> F  </i>
   <i type="logical" name="LCHIMAG"> F  </i>
   <i type="logical" name="LGAUGE"> T  </i>
   <i type="int" name="MAGATOM">     0</i>
   <v name="MAGDIPOL">      0.00000000      0.00000000      0.00000000</v>
   <v name="AVECCONST">      0.00000000      0.00000000      0.00000000</v>
  </separator>
  <separator name="response functions" >
   <i type="logical" name="LADDER"> F  </i>
   <i type="logical" name="LRPAFORCE"> F  </i>
   <i type="logical" name="LFXC"> F  </i>
   <i type="logical" name="LHARTREE"> T  </i>
   <i type="int" name="IBSE">     0</i>
   <v type="int" name="KPOINT">    -1     0     0     0</v>
   <i type="logical" name="LTCTE"> F  </i>
   <i type="logical" name="LTETE"> F  </i>
   <i type="logical" name="LTRIPLET"> F  </i>
   <i type="logical" name="LFXCEPS"> F  </i>
   <i type="logical" name="LFXHEG"> F  </i>
   <i type="int" name="NATURALO">     2</i>
   <i type="logical" name="L2ORDER"> F  </i>
   <i type="logical" name="LMP2LT"> F  </i>
   <i type="logical" name="LUSEW"> F  </i>
   <i name="ENCUTGW">     -2.00000000</i>
   <i name="ENCUTGWSOFT">     -2.00000000</i>
   <i name="ENCUTLF">     -1.00000000</i>
   <i type="int" name="LMAXMP2">    -1</i>
   <i name="SCISSOR">      0.00000000</i>
   <i type="int" name="NOMEGA">     0</i>
   <i type="int" name="NOMEGAR">     0</i>
   <i type="int" name="NBANDSGW">    -1</i>
   <i type="int" name="NBANDSO">    -1</i>
   <i type="int" name="NBANDSV">    -1</i>
   <i type="int" name="NELM">   100</i>
   <i type="int" name="NELMHF">     1</i>
   <i type="int" name="DIM">     3</i>
   <i type="int" name="ANTIRES">     0</i>
   <i name="OMEGAMAX">    -30.00000000</i>
   <i name="OMEGAMIN">    -30.00000000</i>
   <i name="OMEGATL">   -200.00000000</i>
   <i type="int" name="OMEGAGRID">   140</i>
   <i name="CSHIFT">     -0.10000000</i>
   <i type="logical" name="SELFENERGY"> F  </i>
   <i type="logical" name="LSPECTRAL"> F  </i>
   <i type="logical" name="LSPECTRALGW"> F  </i>
   <i type="logical" name="LSINGLES"> F  </i>
   <i type="logical" name="LFERMIGW"> F  </i>
   <i type="logical" name="ODDONLYGW"> F  </i>
   <i type="logical" name="EVENONLYGW"> F  </i>
   <i type="int" name="NKREDLFX">     1</i>
   <i type="int" name="NKREDLFY">     1</i>
   <i type="int" name="NKREDLFZ">     1</i>
   <i type="int" name="MAXMEM">  2800</i>
   <i type="int" name="TELESCOPE">     0</i>
   <i type="int" name="TAUPAR">     1</i>
   <i type="int" name="OMEGAPAR">    -1</i>
   <i name="LAMBDA">      1.00000000</i>
  </separator>
  <separator name="External order field" >
   <i name="OFIELD_KAPPA">      0.00000000</i>
   <v name="OFIELD_K">      0.00000000      0.00000000      0.00000000</v>
   <i name="OFIELD_Q6_NEAR">      0.00000000</i>
   <i name="OFIELD_Q6_FAR">      0.00000000</i>
   <i name="OFIELD_A">      0.00000000</i>
  </separator>
 </parameters>
 <atominfo>
  <atoms>       8 </atoms>
  <types>       1 </types>
  <array name="atoms" >
   <dimension dim="1">ion</dimension>
   <field type="string">element</field>
   <field type="int">atomtype</field>
   <set>
    <rc><c>H </c><c>   1</c></rc>
    <rc><c>H </c><c>   1</c></rc>
    <rc><c>H </c><c>   1</c></rc>
    <rc><c>H </c><c>   1</c></rc>
    <rc><c>H </c><c>   1</c></rc>
    <rc><c>H </c><c>   1</c></rc>
    <rc><c>H </c><c>   1</c></rc>
    <rc><c>H </c><c>   1</c></rc>
   </set>
  </array>
  <array name="atomtypes" >
   <dimension dim="1">type</dimension>
   <field type="int">atomspertype</field>
   <field type="string">element</field>
   <field>mass</field>
   <field>valence</field>
   <field type="string">pseudopotential</field>
   <set>
    <rc><c>   8</c><c>H </c><c>      1.00000000</c><c>      1.00000000</c><c>  PAW_PBE H 15Jun2001                   </c></rc>
   </set>
  </array>
 </atominfo>
 <structure name="initialpos" >
  <crystal>
   <varray name="basis" >
    <v>      15.00000000       0.00000000       0.00000000 </v>
    <v>       0.00000000      15.00000000       0.00000000 </v>
    <v>       0.00000000       0.00000000       9.60000000 </v>
   </varray>
   <i name="volume">   2160.00000000 </i>
   <varray name="rec_basis" >
    <v>       0.06666667      -0.00000000       0.00000000 </v>
    <v>       0.00000000       0.06666667       0.00000000 </v>
    <v>      -0.00000000      -0.00000000       0.10416667 </v>
   </varray>
  </crystal>
  <varray name="positions" >
   <v>       0.00000000       0.00000000       0.00000000 </v>
   <v>       0.00000000       0.00000000       0.12500000 </v>
   <v>       0.00000000       0.00000000       0.25000000 </v>
   <v>       0.00000000       0.00000000       0.37500000 </v>
   <v>       0.00000000       0.00000000       0.50000000 </v>
   <v>       0.00000000       0.00000000       0.62500000 </v>
   <v>       0.00000000       0.00000000       0.75000000 </v>
   <v>       0.00000000       0.00000000       0.87500000 </v>
  </varray>
 </structure>
 <calculation>
  <scstep>
   <time name="dav">    0.36    0.36</time>
   <time name="total">    0.85    0.85</time>
   <energy>
    <i name="alphaZ">      0.07218274 </i>
    <i name="ewald">    105.52780242 </i>
    <i name="hartreedc">   -155.80694935 </i>
    <i name="XCdc">     17.72336472 </i>
    <i name="pawpsdc">     17.07221949 </i>
    <i name="pawaedc">    -17.14324176 </i>
    <i name="eentropy">     -0.00000000 </i>
    <i name="bandstr">    -70.97459483 </i>
    <i name="atom">     99.56620307 </i>
    <i name="e_fr_energy">     -3.96301350 </i>
    <i name="e_wo_entrp">     -3.96301350 </i>
    <i name="e_0_energy">     -3.96301350 </i>
   </energy>
  </scstep>
  <scstep>
   <time name="dav">    0.44    0.44</time>
   <time name="total">    0.44    0.44</time>
   <energy>
    <i name="e_fr_energy">    -20.32622666 </i>
    <i name="e_wo_entrp">    -20.32586876 </i>
    <i name="e_0_energy">    -20.32604771 </i>
   </energy>
  </scstep>
  <scstep>
   <time name="dav">    0.33    0.33</time>
   <time name="total">    0.33    0.33</time>
   <energy>
    <i name="e_fr_energy">    -20.85751160 </i>
    <i name="e_wo_entrp">    -20.63208126 </i>
    <i name="e_0_energy">    -20.74479643 </i>
   </energy>
  </scstep>
  <scstep>
   <time name="dav">    0.36    0.36</time>
   <time name="total">    0.36    0.36</time>
   <energy>
    <i name="e_fr_energy">    -20.87240695 </i>
    <i name="e_wo_entrp">    -20.64673113 </i>
    <i name="e_0_energy">    -20.75956904 </i>
   </energy>
  </scstep>
  <scstep>
   <time name="dav">    0.51    0.51</time>
   <time name="total">    0.67    0.67</time>
   <energy>
    <i name="e_fr_energy">    -20.87257332 </i>
    <i name="e_wo_entrp">    -20.64689749 </i>
    <i name="e_0_energy">    -20.75973540 </i>
   </energy>
  </scstep>
  <scstep>
   <time name="dav">    0.33    0.33</time>
   <time name="total">    1.00    1.00</time>
   <energy>
    <i name="e_fr_energy">    -20.68669998 </i>
    <i name="e_wo_entrp">    -20.46102415 </i>
    <i name="e_0_energy">    -20.57386207 </i>
   </energy>
  </scstep>
  <scstep>
   <time name="dav">    0.34    0.34</time>
   <time name="total">    1.02    1.02</time>
   <energy>
    <i name="e_fr_energy">    -20.52291150 </i>
    <i name="e_wo_entrp">    -20.29723566 </i>
    <i name="e_0_energy">    -20.41007358 </i>
   </energy>
  </scstep>
  <scstep>
   <time name="dav">    0.31    0.31</time>
   <time name="total">    0.98    0.98</time>
   <energy>
    <i name="e_fr_energy">    -20.52168396 </i>
    <i name="e_wo_entrp">    -20.29600812 </i>
    <i name="e_0_energy">    -20.40884604 </i>
   </energy>
  </scstep>
  <scstep>
   <time name="dav">    0.35    0.35</time>
   <time name="total">    1.02    1.01</time>
   <energy>
    <i name="e_fr_energy">    -20.52162869 </i>
    <i name="e_wo_entrp">    -20.29595285 </i>
    <i name="e_0_energy">    -20.40879077 </i>
   </energy>
  </scstep>
  <scstep>
   <time name="dav">    0.29    0.29</time>
   <time name="total">    0.96    0.96</time>
   <energy>
    <i name="e_fr_energy">    -20.52392630 </i>
    <i name="e_wo_entrp">    -20.29825046 </i>
    <i name="e_0_energy">    -20.41108838 </i>
   </energy>
  </scstep>
  <scstep>
   <time name="dav">    0.29    0.29</time>
   <time name="total">    0.98    0.98</time>
   <energy>
    <i name="e_fr_energy">    -20.52753088 </i>
    <i name="e_wo_entrp">    -20.30185505 </i>
    <i name="e_0_energy">    -20.41469296 </i>
   </energy>
  </scstep>
  <scstep>
   <time name="dav">    0.29    0.29</time>
   <time name="total">    0.95    0.95</time>
   <energy>
    <i name="e_fr_energy">    -20.52855034 </i>
    <i name="e_wo_entrp">    -20.30287451 </i>
    <i name="e_0_energy">    -20.41571243 </i>
   </energy>
  </scstep>
  <scstep>
   <time name="dav">    0.30    0.30</time>
   <time name="total">    0.96    0.96</time>
   <energy>
    <i name="e_fr_energy">    -20.52886269 </i>
    <i name="e_wo_entrp">    -20.30318686 </i>
    <i name="e_0_energy">    -20.41602478 </i>
   </energy>
  </scstep>
  <scstep>
   <time name="dav">    0.29    0.29</time>
   <time name="total">    0.96    0.96</time>
   <energy>
    <i name="e_fr_energy">    -20.52928879 </i>
    <i name="e_wo_entrp">    -20.30361296 </i>
    <i name="e_0_energy">    -20.41645087 </i>
   </energy>
  </scstep>
  <scstep>
   <time name="dav">    0.32    0.32</time>
   <time name="total">    0.99    0.99</time>
   <energy>
    <i name="e_fr_energy">    -20.52931927 </i>
    <i name="e_wo_entrp">    -20.30364343 </i>
    <i name="e_0_energy">    -20.41648135 </i>
   </energy>
  </scstep>
  <scstep>
   <time name="dav">    0.29    0.29</time>
   <time name="total">    0.96    0.96</time>
   <energy>
    <i name="e_fr_energy">    -20.52938261 </i>
    <i name="e_wo_entrp">    -20.30370678 </i>
    <i name="e_0_energy">    -20.41654470 </i>
   </energy>
  </scstep>
  <scstep>
   <time name="dav">    0.30    0.30</time>
   <time name="total">    0.83    0.83</time>
   <energy>
    <i name="alphaZ">      0.07218274 </i>
    <i name="ewald">    105.52780242 </i>
    <i name="hartreedc">   -169.29316921 </i>
    <i name="XCdc">     19.26219886 </i>
    <i name="pawpsdc">     49.18575202 </i>
    <i name="pawaedc">    -49.28436326 </i>
    <i name="eentropy">     -0.22567583 </i>
    <i name="bandstr">    -75.34031413 </i>
    <i name="atom">     99.56620307 </i>
    <i name="e_fr_energy">    -20.52938334 </i>
    <i name="e_wo_entrp">    -20.30370751 </i>
    <i name="e_0_energy">    -20.41654543 </i>
   </energy>
  </scstep>
  <structure>
   <crystal>
    <varray name="basis" >
     <v>      15.00000000       0.00000000       0.00000000 </v>
     <v>       0.00000000      15.00000000       0.00000000 </v>
     <v>       0.00000000       0.00000000       9.60000000 </v>
    </varray>
    <i name="volume">   2160.00000000 </i>
    <varray name="rec_basis" >
     <v>       0.06666667      -0.00000000       0.00000000 </v>
     <v>       0.00000000       0.06666667       0.00000000 </v>
     <v>      -0.00000000      -0.00000000       0.10416667 </v>
    </varray>
   </crystal>
   <varray name="positions" >
    <v>       0.00000000       0.00000000       0.00000000 </v>
    <v>       0.00000000       0.00000000       0.12500000 </v>
    <v>       0.00000000       0.00000000       0.25000000 </v>
    <v>       0.00000000       0.00000000       0.37500000 </v>
    <v>       0.00000000       0.00000000       0.50000000 </v>
    <v>       0.00000000       0.00000000       0.62500000 </v>
    <v>       0.00000000       0.00000000       0.75000000 </v>
    <v>       0.00000000       0.00000000       0.87500000 </v>
   </varray>
  </structure>
  <varray name="forces" >
   <v>       0.00000000       0.00000000      -0.00000000 </v>
   <v>       0.00000000      -0.00000000       0.00000000 </v>
   <v>      -0.00000000       0.00000000       0.00000000 </v>
   <v>       0.00000000       0.00000000       0.00000000 </v>
   <v>       0.00000000       0.00000000      -0.00000000 </v>
   <v>      -0.00000000       0.00000000      -0.00000000 </v>
   <v>      -0.00000000       0.00000000      -0.00000000 </v>
   <v>       0.00000000      -0.00000000       0.00000000 </v>
  </varray>
  <varray name="stress" >
   <v>      -0.80687204      -0.00000000      -0.00000000 </v>
   <v>      -0.00000000      -0.80687204      -0.00000000 </v>
   <v>      -0.00000000      -0.00000000      -8.93693818 </v>
  </varray>
  <energy>
   <i name="e_fr_energy">    -20.52938334 </i>
   <i name="e_wo_entrp">    -20.41654543 </i>
   <i name="e_0_energy">     -0.22567583 </i>
  </energy>
  <time name="totalsc">   15.23   15.23</time>
  <eigenvalues>
   <array>
    <dimension dim="1">band</dimension>
    <dimension dim="2">kpoint</dimension>
    <dimension dim="3">spin</dimension>
    <field>eigene</field>
    <field>occ</field>
    <set>
     <set comment="spin 1">
      <set comment="kpoint 1">
       <r>  -11.8084    1.0000 </r>
       <r>  -10.2103    1.0000 </r>
       <r>  -10.2103    1.0000 </r>
       <r>   -5.4411    0.5000 </r>
       <r>   -5.4411    0.5000 </r>
       <r>   -0.1562    0.0000 </r>
       <r>   -0.1562    0.0000 </r>
       <r>   -0.1188    0.0000 </r>
       <r>    0.5525    0.0000 </r>
       <r>    0.5927    0.0000 </r>
       <r>    0.9456    0.0000 </r>
       <r>    0.9456    0.0000 </r>
      </set>
     </set>
     <set comment="spin 2">
      <set comment="kpoint 1">
       <r>  -11.8084    1.0000 </r>
       <r>  -10.2103    1.0000 </r>
       <r>  -10.2103    1.0000 </r>
       <r>   -5.4411    0.5000 </r>
       <r>   -5.4411    0.5000 </r>
       <r>   -0.1568    0.0000 </r>
       <r>   -0.1568    0.0000 </r>
       <r>   -0.1178    0.0000 </r>
       <r>    0.5532    0.0000 </r>
       <r>    0.5976    0.0000 </r>
       <r>    0.9487    0.0000 </r>
       <r>    0.9487    0.0000 </r>
      </set>
     </set>
    </set>
   </array>
  </eigenvalues>
  <separator name="orbital magnetization" >
   <v name="MAGDIPOLOUT">      0.00000000      0.00000000      0.00000000</v>
  </separator>
  <dos>
   <i name="efermi">     -5.44106840 </i>
   <total>
    <array>
     <dimension dim="1">gridpoints</dimension>
     <dimension dim="2">spin</dimension>
     <field>energy</field>
     <field>total</field>
     <field>integrated</field>
     <set>
      <set comment="spin 1">
       <r>   -13.8084     0.0000     0.0000 </r>
       <r>   -13.7526     0.0000     0.0000 </r>
       <r>   -13.6967     0.0000     0.0000 </r>
       <r>   -13.6409     0.0000     0.0000 </r>
       <r>   -13.5850     0.0000     0.0000 </r>
       <r>   -13.5291     0.0000     0.0000 </r>
       <r>   -13.4733     0.0000     0.0000 </r>
       <r>   -13.4174     0.0000     0.0000 </r>
       <r>   -13.3616     0.0000     0.0000 </r>
       <r>   -13.3057     0.0000     0.0000 </r>
       <r>   -13.2499     0.0000     0.0000 </r>
       <r>   -13.1940     0.0000     0.0000 </r>
       <r>   -13.1381     0.0000     0.0000 </r>
       <r>   -13.0823     0.0000     0.0000 </r>
       <r>   -13.0264     0.0000     0.0000 </r>
       <r>   -12.9706     0.0000     0.0000 </r>
       <r>   -12.9147     0.0000     0.0000 </r>
       <r>   -12.8589     0.0000     0.0000 </r>
       <r>   -12.8030     0.0000     0.0000 </r>
       <r>   -12.7471     0.0000     0.0000 </r>
       <r>   -12.6913     0.0000     0.0000 </r>
       <r>   -12.6354     0.0000     0.0000 </r>
       <r>   -12.5796     0.0000     0.0000 </r>
       <r>   -12.5237     0.0000     0.0000 </r>
       <r>   -12.4679     0.0000     0.0000 </r>
       <r>   -12.4120     0.0003     0.0000 </r>
       <r>   -12.3561     0.0016     0.0001 </r>
       <r>   -12.3003     0.0071     0.0005 </r>
       <r>   -12.2444     0.0276     0.0020 </r>
       <r>   -12.1886     0.0920     0.0072 </r>
       <r>   -12.1327     0.2624     0.0218 </r>
       <r>   -12.0769     0.6417     0.0577 </r>
       <r>   -12.0210     1.3450     0.1328 </r>
       <r>   -11.9651     2.4167     0.2678 </r>
       <r>   -11.9093     3.7227     0.4757 </r>
       <r>   -11.8534     4.9160     0.7503 </r>
       <r>   -11.7976     5.5653     1.0612 </r>
       <r>   -11.7417     5.4012     1.3629 </r>
       <r>   -11.6859     4.4938     1.6139 </r>
       <r>   -11.6300     3.2052     1.7929 </r>
       <r>   -11.5741     1.9599     1.9024 </r>
       <r>   -11.5183     1.0273     1.9598 </r>
       <r>   -11.4624     0.4616     1.9856 </r>
       <r>   -11.4066     0.1778     1.9955 </r>
       <r>   -11.3507     0.0587     1.9988 </r>
       <r>   -11.2949     0.0166     1.9997 </r>
       <r>   -11.2390     0.0040     1.9999 </r>
       <r>   -11.1831     0.0008     2.0000 </r>
       <r>   -11.1273     0.0001     2.0000 </r>
       <r>   -11.0714     0.0000     2.0000 </r>
       <r>   -11.0156     0.0000     2.0000 </r>
       <r>   -10.9597     0.0000     2.0000 </r>
       <r>   -10.9039     0.0000     2.0000 </r>
       <r>   -10.8480     0.0002     2.0000 </r>
       <r>   -10.7921     0.0012     2.0001 </r>
       <r>   -10.7363     0.0058     2.0004 </r>
       <r>   -10.6804     0.0246     2.0018 </r>
       <r>   -10.6246     0.0899     2.0068 </r>
       <r>   -10.5687     0.2819     2.0225 </r>
       <r>   -10.5129     0.7572     2.0648 </r>
       <r>   -10.4570     1.7436     2.1622 </r>
       <r>   -10.4011     3.4420     2.3545 </r>
       <r>   -10.3453     5.8248     2.6798 </r>
       <r>   -10.2894     8.4502     3.1519 </r>
       <r>   -10.2336    10.5093     3.7389 </r>
       <r>   -10.1777    11.2048     4.3647 </r>
       <r>   -10.1219    10.2415     4.9368 </r>
       <r>   -10.0660     8.0250     5.3850 </r>
       <r>   -10.0101     5.3907     5.6862 </r>
       <r>    -9.9543     3.1043     5.8596 </r>
       <r>    -9.8984     1.5325     5.9452 </r>
       <r>    -9.8426     0.6485     5.9814 </r>
       <r>    -9.7867     0.2352     5.9945 </r>
       <r>    -9.7309     0.0732     5.9986 </r>
       <r>    -9.6750     0.0195     5.9997 </r>
       <r>    -9.6191     0.0045     5.9999 </r>
       <r>    -9.5633     0.0009     6.0000 </r>
       <r>    -9.5074     0.0001     6.0000 </r>
       <r>    -9.4516     0.0000     6.0000 </r>
       <r>    -9.3957     0.0000     6.0000 </r>
       <r>    -9.3399     0.0000     6.0000 </r>
       <r>    -9.2840     0.0000     6.0000 </r>
       <r>    -9.2281     0.0000     6.0000 </r>
       <r>    -9.1723     0.0000     6.0000 </r>
       <r>    -9.1164     0.0000     6.0000 </r>
       <r>    -9.0606     0.0000     6.0000 </r>
       <r>    -9.0047     0.0000     6.0000 </r>
       <r>    -8.9489     0.0000     6.0000 </r>
       <r>    -8.8930     0.0000     6.0000 </r>
       <r>    -8.8371     0.0000     6.0000 </r>
       <r>    -8.7813     0.0000     6.0000 </r>
       <r>    -8.7254     0.0000     6.0000 </r>
       <r>    -8.6696     0.0000     6.0000 </r>
       <r>    -8.6137     0.0000     6.0000 </r>
       <r>    -8.5579     0.0000     6.0000 </r>
       <r>    -8.5020     0.0000     6.0000 </r>
       <r>    -8.4461     0.0000     6.0000 </r>
       <r>    -8.3903     0.0000     6.0000 </r>
       <r>    -8.3344     0.0000     6.0000 </r>
       <r>    -8.2786     0.0000     6.0000 </r>
       <r>    -8.2227     0.0000     6.0000 </r>
       <r>    -8.1669     0.0000     6.0000 </r>
       <r>    -8.1110     0.0000     6.0000 </r>
       <r>    -8.0551     0.0000     6.0000 </r>
       <r>    -7.9993     0.0000     6.0000 </r>
       <r>    -7.9434     0.0000     6.0000 </r>
       <r>    -7.8876     0.0000     6.0000 </r>
       <r>    -7.8317     0.0000     6.0000 </r>
       <r>    -7.7759     0.0000     6.0000 </r>
       <r>    -7.7200     0.0000     6.0000 </r>
       <r>    -7.6641     0.0000     6.0000 </r>
       <r>    -7.6083     0.0000     6.0000 </r>
       <r>    -7.5524     0.0000     6.0000 </r>
       <r>    -7.4966     0.0000     6.0000 </r>
       <r>    -7.4407     0.0000     6.0000 </r>
       <r>    -7.3849     0.0000     6.0000 </r>
       <r>    -7.3290     0.0000     6.0000 </r>
       <r>    -7.2731     0.0000     6.0000 </r>
       <r>    -7.2173     0.0000     6.0000 </r>
       <r>    -7.1614     0.0000     6.0000 </r>
       <r>    -7.1056     0.0000     6.0000 </r>
       <r>    -7.0497     0.0000     6.0000 </r>
       <r>    -6.9939     0.0000     6.0000 </r>
       <r>    -6.9380     0.0000     6.0000 </r>
       <r>    -6.8821     0.0000     6.0000 </r>
       <r>    -6.8263     0.0000     6.0000 </r>
       <r>    -6.7704     0.0000     6.0000 </r>
       <r>    -6.7146     0.0000     6.0000 </r>
       <r>    -6.6587     0.0000     6.0000 </r>
       <r>    -6.6029     0.0000     6.0000 </r>
       <r>    -6.5470     0.0000     6.0000 </r>
       <r>    -6.4911     0.0000     6.0000 </r>
       <r>    -6.4353     0.0000     6.0000 </r>
       <r>    -6.3794     0.0000     6.0000 </r>
       <r>    -6.3236     0.0000     6.0000 </r>
       <r>    -6.2677     0.0000     6.0000 </r>
       <r>    -6.2119     0.0000     6.0000 </r>
       <r>    -6.1560     0.0000     6.0000 </r>
       <r>    -6.1001     0.0001     6.0000 </r>
       <r>    -6.0443     0.0006     6.0000 </r>
       <r>    -5.9884     0.0032     6.0002 </r>
       <r>    -5.9326     0.0144     6.0010 </r>
       <r>    -5.8767     0.0557     6.0041 </r>
       <r>    -5.8209     0.1853     6.0145 </r>
       <r>    -5.7650     0.5281     6.0440 </r>
       <r>    -5.7091     1.2900     6.1160 </r>
       <r>    -5.6533     2.7012     6.2669 </r>
       <r>    -5.5974     4.8491     6.5378 </r>
       <r>    -5.5416     7.4622     6.9546 </r>
       <r>    -5.4857     9.8445     7.5045 </r>
       <r>    -5.4299    11.1338     8.1264 </r>
       <r>    -5.3740    10.7950     8.7294 </r>
       <r>    -5.3181     8.9727     9.2305 </r>
       <r>    -5.2623     6.3936     9.5877 </r>
       <r>    -5.2064     3.9056     9.8058 </r>
       <r>    -5.1506     2.0452     9.9201 </r>
       <r>    -5.0947     0.9181     9.9714 </r>
       <r>    -5.0389     0.3533     9.9911 </r>
       <r>    -4.9830     0.1165     9.9976 </r>
       <r>    -4.9271     0.0330     9.9994 </r>
       <r>    -4.8713     0.0080     9.9999 </r>
       <r>    -4.8154     0.0017    10.0000 </r>
       <r>    -4.7596     0.0003    10.0000 </r>
       <r>    -4.7037     0.0000    10.0000 </r>
       <r>    -4.6479     0.0000    10.0000 </r>
       <r>    -4.5920     0.0000    10.0000 </r>
       <r>    -4.5361     0.0000    10.0000 </r>
       <r>    -4.4803     0.0000    10.0000 </r>
       <r>    -4.4244     0.0000    10.0000 </r>
       <r>    -4.3686     0.0000    10.0000 </r>
       <r>    -4.3127     0.0000    10.0000 </r>
       <r>    -4.2569     0.0000    10.0000 </r>
       <r>    -4.2010     0.0000    10.0000 </r>
       <r>    -4.1451     0.0000    10.0000 </r>
       <r>    -4.0893     0.0000    10.0000 </r>
       <r>    -4.0334     0.0000    10.0000 </r>
       <r>    -3.9776     0.0000    10.0000 </r>
       <r>    -3.9217     0.0000    10.0000 </r>
       <r>    -3.8659     0.0000    10.0000 </r>
       <r>    -3.8100     0.0000    10.0000 </r>
       <r>    -3.7541     0.0000    10.0000 </r>
       <r>    -3.6983     0.0000    10.0000 </r>
       <r>    -3.6424     0.0000    10.0000 </r>
       <r>    -3.5866     0.0000    10.0000 </r>
       <r>    -3.5307     0.0000    10.0000 </r>
       <r>    -3.4749     0.0000    10.0000 </r>
       <r>    -3.4190     0.0000    10.0000 </r>
       <r>    -3.3631     0.0000    10.0000 </r>
       <r>    -3.3073     0.0000    10.0000 </r>
       <r>    -3.2514     0.0000    10.0000 </r>
       <r>    -3.1956     0.0000    10.0000 </r>
       <r>    -3.1397     0.0000    10.0000 </r>
       <r>    -3.0839     0.0000    10.0000 </r>
       <r>    -3.0280     0.0000    10.0000 </r>
       <r>    -2.9721     0.0000    10.0000 </r>
       <r>    -2.9163     0.0000    10.0000 </r>
       <r>    -2.8604     0.0000    10.0000 </r>
       <r>    -2.8046     0.0000    10.0000 </r>
       <r>    -2.7487     0.0000    10.0000 </r>
       <r>    -2.6929     0.0000    10.0000 </r>
       <r>    -2.6370     0.0000    10.0000 </r>
       <r>    -2.5811     0.0000    10.0000 </r>
       <r>    -2.5253     0.0000    10.0000 </r>
       <r>    -2.4694     0.0000    10.0000 </r>
       <r>    -2.4136     0.0000    10.0000 </r>
       <r>    -2.3577     0.0000    10.0000 </r>
       <r>    -2.3019     0.0000    10.0000 </r>
       <r>    -2.2460     0.0000    10.0000 </r>
       <r>    -2.1901     0.0000    10.0000 </r>
       <r>    -2.1343     0.0000    10.0000 </r>
       <r>    -2.0784     0.0000    10.0000 </r>
       <r>    -2.0226     0.0000    10.0000 </r>
       <r>    -1.9667     0.0000    10.0000 </r>
       <r>    -1.9109     0.0000    10.0000 </r>
       <r>    -1.8550     0.0000    10.0000 </r>
       <r>    -1.7991     0.0000    10.0000 </r>
       <r>    -1.7433     0.0000    10.0000 </r>
       <r>    -1.6874     0.0000    10.0000 </r>
       <r>    -1.6316     0.0000    10.0000 </r>
       <r>    -1.5757     0.0000    10.0000 </r>
       <r>    -1.5199     0.0000    10.0000 </r>
       <r>    -1.4640     0.0000    10.0000 </r>
       <r>    -1.4081     0.0000    10.0000 </r>
       <r>    -1.3523     0.0000    10.0000 </r>
       <r>    -1.2964     0.0000    10.0000 </r>
       <r>    -1.2406     0.0000    10.0000 </r>
       <r>    -1.1847     0.0000    10.0000 </r>
       <r>    -1.1289     0.0000    10.0000 </r>
       <r>    -1.0730     0.0000    10.0000 </r>
       <r>    -1.0171     0.0000    10.0000 </r>
       <r>    -0.9613     0.0000    10.0000 </r>
       <r>    -0.9054     0.0000    10.0000 </r>
       <r>    -0.8496     0.0000    10.0000 </r>
       <r>    -0.7937     0.0002    10.0000 </r>
       <r>    -0.7379     0.0013    10.0001 </r>
       <r>    -0.6820     0.0068    10.0005 </r>
       <r>    -0.6261     0.0295    10.0021 </r>
       <r>    -0.5703     0.1095    10.0082 </r>
       <r>    -0.5144     0.3497    10.0278 </r>
       <r>    -0.4586     0.9585    10.0813 </r>
       <r>    -0.4027     2.2561    10.2073 </r>
       <r>    -0.3469     4.5606    10.4621 </r>
       <r>    -0.2910     7.9186    10.9044 </r>
       <r>    -0.2351    11.8111    11.5641 </r>
       <r>    -0.1793    15.1353    12.4095 </r>
       <r>    -0.1234    16.6648    13.3404 </r>
       <r>    -0.0676    15.7673    14.2211 </r>
       <r>    -0.0117    12.8211    14.9372 </r>
       <r>     0.0441     8.9644    15.4380 </r>
       <r>     0.1000     5.4058    15.7399 </r>
       <r>     0.1559     2.8697    15.9002 </r>
       <r>     0.2117     1.5181    15.9850 </r>
       <r>     0.2676     1.2289    16.0537 </r>
       <r>     0.3234     1.8859    16.1590 </r>
       <r>     0.3793     3.4415    16.3512 </r>
       <r>     0.4351     5.7463    16.6722 </r>
       <r>     0.4910     8.3417    17.1381 </r>
       <r>     0.5469    10.4783    17.7234 </r>
       <r>     0.6027    11.4751    18.3644 </r>
       <r>     0.6586    11.2005    18.9900 </r>
       <r>     0.7144    10.2485    19.5625 </r>
       <r>     0.7703     9.5722    20.0972 </r>
       <r>     0.8261     9.7972    20.6444 </r>
       <r>     0.8820    10.7481    21.2448 </r>
       <r>     0.9379    11.5708    21.8911 </r>
       <r>     0.9937    11.3626    22.5257 </r>
       <r>     1.0496     9.8060    23.0735 </r>
       <r>     1.1054     7.3231    23.4825 </r>
       <r>     1.1613     4.7045    23.7453 </r>
       <r>     1.2171     2.5942    23.8902 </r>
       <r>     1.2730     1.2269    23.9587 </r>
       <r>     1.3289     0.4975    23.9865 </r>
       <r>     1.3847     0.1729    23.9962 </r>
       <r>     1.4406     0.0515    23.9991 </r>
       <r>     1.4964     0.0132    23.9998 </r>
       <r>     1.5523     0.0029    24.0000 </r>
       <r>     1.6081     0.0005    24.0000 </r>
       <r>     1.6640     0.0001    24.0000 </r>
       <r>     1.7199     0.0000    24.0000 </r>
       <r>     1.7757     0.0000    24.0000 </r>
       <r>     1.8316     0.0000    24.0000 </r>
       <r>     1.8874     0.0000    24.0000 </r>
       <r>     1.9433     0.0000    24.0000 </r>
       <r>     1.9991     0.0000    24.0000 </r>
       <r>     2.0550     0.0000    24.0000 </r>
       <r>     2.1109     0.0000    24.0000 </r>
       <r>     2.1667     0.0000    24.0000 </r>
       <r>     2.2226     0.0000    24.0000 </r>
       <r>     2.2784     0.0000    24.0000 </r>
       <r>     2.3343     0.0000    24.0000 </r>
       <r>     2.3901     0.0000    24.0000 </r>
       <r>     2.4460     0.0000    24.0000 </r>
       <r>     2.5019     0.0000    24.0000 </r>
       <r>     2.5577     0.0000    24.0000 </r>
       <r>     2.6136     0.0000    24.0000 </r>
       <r>     2.6694     0.0000    24.0000 </r>
       <r>     2.7253     0.0000    24.0000 </r>
       <r>     2.7811     0.0000    24.0000 </r>
       <r>     2.8370     0.0000    24.0000 </r>
       <r>     2.8929     0.0000    24.0000 </r>
       <r>     2.9487     0.0000    24.0000 </r>
      </set>
      <set comment="spin 2">
       <r>   -13.8084     0.0000     0.0000 </r>
       <r>   -13.7526     0.0000     0.0000 </r>
       <r>   -13.6967     0.0000     0.0000 </r>
       <r>   -13.6409     0.0000     0.0000 </r>
       <r>   -13.5850     0.0000     0.0000 </r>
       <r>   -13.5291     0.0000     0.0000 </r>
       <r>   -13.4733     0.0000     0.0000 </r>
       <r>   -13.4174     0.0000     0.0000 </r>
       <r>   -13.3616     0.0000     0.0000 </r>
       <r>   -13.3057     0.0000     0.0000 </r>
       <r>   -13.2499     0.0000     0.0000 </r>
       <r>   -13.1940     0.0000     0.0000 </r>
       <r>   -13.1381     0.0000     0.0000 </r>
       <r>   -13.0823     0.0000     0.0000 </r>
       <r>   -13.0264     0.0000     0.0000 </r>
       <r>   -12.9706     0.0000     0.0000 </r>
       <r>   -12.9147     0.0000     0.0000 </r>
       <r>   -12.8589     0.0000     0.0000 </r>
       <r>   -12.8030     0.0000     0.0000 </r>
       <r>   -12.7471     0.0000     0.0000 </r>
       <r>   -12.6913     0.0000     0.0000 </r>
       <r>   -12.6354     0.0000     0.0000 </r>
       <r>   -12.5796     0.0000     0.0000 </r>
       <r>   -12.5237     0.0000     0.0000 </r>
       <r>   -12.4679     0.0000     0.0000 </r>
       <r>   -12.4120     0.0003     0.0000 </r>
       <r>   -12.3561     0.0016     0.0001 </r>
       <r>   -12.3003     0.0071     0.0005 </r>
       <r>   -12.2444     0.0276     0.0020 </r>
       <r>   -12.1886     0.0920     0.0072 </r>
       <r>   -12.1327     0.2624     0.0218 </r>
       <r>   -12.0769     0.6416     0.0577 </r>
       <r>   -12.0210     1.3449     0.1328 </r>
       <r>   -11.9651     2.4166     0.2678 </r>
       <r>   -11.9093     3.7226     0.4757 </r>
       <r>   -11.8534     4.9159     0.7503 </r>
       <r>   -11.7976     5.5653     1.0612 </r>
       <r>   -11.7417     5.4012     1.3629 </r>
       <r>   -11.6859     4.4939     1.6139 </r>
       <r>   -11.6300     3.2053     1.7929 </r>
       <r>   -11.5741     1.9599     1.9024 </r>
       <r>   -11.5183     1.0274     1.9598 </r>
       <r>   -11.4624     0.4616     1.9856 </r>
       <r>   -11.4066     0.1778     1.9955 </r>
       <r>   -11.3507     0.0587     1.9988 </r>
       <r>   -11.2949     0.0166     1.9997 </r>
       <r>   -11.2390     0.0040     1.9999 </r>
       <r>   -11.1831     0.0008     2.0000 </r>
       <r>   -11.1273     0.0001     2.0000 </r>
       <r>   -11.0714     0.0000     2.0000 </r>
       <r>   -11.0156     0.0000     2.0000 </r>
       <r>   -10.9597     0.0000     2.0000 </r>
       <r>   -10.9039     0.0000     2.0000 </r>
       <r>   -10.8480     0.0002     2.0000 </r>
       <r>   -10.7921     0.0012     2.0001 </r>
       <r>   -10.7363     0.0058     2.0004 </r>
       <r>   -10.6804     0.0246     2.0018 </r>
       <r>   -10.6246     0.0899     2.0068 </r>
       <r>   -10.5687     0.2818     2.0225 </r>
       <r>   -10.5129     0.7571     2.0648 </r>
       <r>   -10.4570     1.7435     2.1622 </r>
       <r>   -10.4011     3.4419     2.3545 </r>
       <r>   -10.3453     5.8246     2.6798 </r>
       <r>   -10.2894     8.4500     3.1518 </r>
       <r>   -10.2336    10.5092     3.7388 </r>
       <r>   -10.1777    11.2048     4.3647 </r>
       <r>   -10.1219    10.2416     4.9368 </r>
       <r>   -10.0660     8.0251     5.3850 </r>
       <r>   -10.0101     5.3909     5.6861 </r>
       <r>    -9.9543     3.1044     5.8595 </r>
       <r>    -9.8984     1.5325     5.9452 </r>
       <r>    -9.8426     0.6485     5.9814 </r>
       <r>    -9.7867     0.2353     5.9945 </r>
       <r>    -9.7309     0.0732     5.9986 </r>
       <r>    -9.6750     0.0195     5.9997 </r>
       <r>    -9.6191     0.0045     5.9999 </r>
       <r>    -9.5633     0.0009     6.0000 </r>
       <r>    -9.5074     0.0001     6.0000 </r>
       <r>    -9.4516     0.0000     6.0000 </r>
       <r>    -9.3957     0.0000     6.0000 </r>
       <r>    -9.3399     0.0000     6.0000 </r>
       <r>    -9.2840     0.0000     6.0000 </r>
       <r>    -9.2281     0.0000     6.0000 </r>
       <r>    -9.1723     0.0000     6.0000 </r>
       <r>    -9.1164     0.0000     6.0000 </r>
       <r>    -9.0606     0.0000     6.0000 </r>
       <r>    -9.0047     0.0000     6.0000 </r>
       <r>    -8.9489     0.0000     6.0000 </r>
       <r>    -8.8930     0.0000     6.0000 </r>
       <r>    -8.8371     0.0000     6.0000 </r>
       <r>    -8.7813     0.0000     6.0000 </r>
       <r>    -8.7254     0.0000     6.0000 </r>
       <r>    -8.6696     0.0000     6.0000 </r>
       <r>    -8.6137     0.0000     6.0000 </r>
       <r>    -8.5579     0.0000     6.0000 </r>
       <r>    -8.5020     0.0000     6.0000 </r>
       <r>    -8.4461     0.0000     6.0000 </r>
       <r>    -8.3903     0.0000     6.0000 </r>
       <r>    -8.3344     0.0000     6.0000 </r>
       <r>    -8.2786     0.0000     6.0000 </r>
       <r>    -8.2227     0.0000     6.0000 </r>
       <r>    -8.1669     0.0000     6.0000 </r>
       <r>    -8.1110     0.0000     6.0000 </r>
       <r>    -8.0551     0.0000     6.0000 </r>
       <r>    -7.9993     0.0000     6.0000 </r>
       <r>    -7.9434     0.0000     6.0000 </r>
       <r>    -7.8876     0.0000     6.0000 </r>
       <r>    -7.8317     0.0000     6.0000 </r>
       <r>    -7.7759     0.0000     6.0000 </r>
       <r>    -7.7200     0.0000     6.0000 </r>
       <r>    -7.6641     0.0000     6.0000 </r>
       <r>    -7.6083     0.0000     6.0000 </r>
       <r>    -7.5524     0.0000     6.0000 </r>
       <r>    -7.4966     0.0000     6.0000 </r>
       <r>    -7.4407     0.0000     6.0000 </r>
       <r>    -7.3849     0.0000     6.0000 </r>
       <r>    -7.3290     0.0000     6.0000 </r>
       <r>    -7.2731     0.0000     6.0000 </r>
       <r>    -7.2173     0.0000     6.0000 </r>
       <r>    -7.1614     0.0000     6.0000 </r>
       <r>    -7.1056     0.0000     6.0000 </r>
       <r>    -7.0497     0.0000     6.0000 </r>
       <r>    -6.9939     0.0000     6.0000 </r>
       <r>    -6.9380     0.0000     6.0000 </r>
       <r>    -6.8821     0.0000     6.0000 </r>
       <r>    -6.8263     0.0000     6.0000 </r>
       <r>    -6.7704     0.0000     6.0000 </r>
       <r>    -6.7146     0.0000     6.0000 </r>
       <r>    -6.6587     0.0000     6.0000 </r>
       <r>    -6.6029     0.0000     6.0000 </r>
       <r>    -6.5470     0.0000     6.0000 </r>
       <r>    -6.4911     0.0000     6.0000 </r>
       <r>    -6.4353     0.0000     6.0000 </r>
       <r>    -6.3794     0.0000     6.0000 </r>
       <r>    -6.3236     0.0000     6.0000 </r>
       <r>    -6.2677     0.0000     6.0000 </r>
       <r>    -6.2119     0.0000     6.0000 </r>
       <r>    -6.1560     0.0000     6.0000 </r>
       <r>    -6.1001     0.0001     6.0000 </r>
       <r>    -6.0443     0.0006     6.0000 </r>
       <r>    -5.9884     0.0032     6.0002 </r>
       <r>    -5.9326     0.0144     6.0010 </r>
       <r>    -5.8767     0.0557     6.0041 </r>
       <r>    -5.8209     0.1853     6.0145 </r>
       <r>    -5.7650     0.5280     6.0440 </r>
       <r>    -5.7091     1.2899     6.1160 </r>
       <r>    -5.6533     2.7011     6.2669 </r>
       <r>    -5.5974     4.8489     6.5378 </r>
       <r>    -5.5416     7.4620     6.9546 </r>
       <r>    -5.4857     9.8444     7.5044 </r>
       <r>    -5.4299    11.1338     8.1263 </r>
       <r>    -5.3740    10.7950     8.7293 </r>
       <r>    -5.3181     8.9729     9.2305 </r>
       <r>    -5.2623     6.3938     9.5877 </r>
       <r>    -5.2064     3.9058     9.8058 </r>
       <r>    -5.1506     2.0453     9.9201 </r>
       <r>    -5.0947     0.9182     9.9714 </r>
       <r>    -5.0389     0.3533     9.9911 </r>
       <r>    -4.9830     0.1166     9.9976 </r>
       <r>    -4.9271     0.0330     9.9994 </r>
       <r>    -4.8713     0.0080     9.9999 </r>
       <r>    -4.8154     0.0017    10.0000 </r>
       <r>    -4.7596     0.0003    10.0000 </r>
       <r>    -4.7037     0.0000    10.0000 </r>
       <r>    -4.6479     0.0000    10.0000 </r>
       <r>    -4.5920     0.0000    10.0000 </r>
       <r>    -4.5361     0.0000    10.0000 </r>
       <r>    -4.4803     0.0000    10.0000 </r>
       <r>    -4.4244     0.0000    10.0000 </r>
       <r>    -4.3686     0.0000    10.0000 </r>
       <r>    -4.3127     0.0000    10.0000 </r>
       <r>    -4.2569     0.0000    10.0000 </r>
       <r>    -4.2010     0.0000    10.0000 </r>
       <r>    -4.1451     0.0000    10.0000 </r>
       <r>    -4.0893     0.0000    10.0000 </r>
       <r>    -4.0334     0.0000    10.0000 </r>
       <r>    -3.9776     0.0000    10.0000 </r>
       <r>    -3.9217     0.0000    10.0000 </r>
       <r>    -3.8659     0.0000    10.0000 </r>
       <r>    -3.8100     0.0000    10.0000 </r>
       <r>    -3.7541     0.0000    10.0000 </r>
       <r>    -3.6983     0.0000    10.0000 </r>
       <r>    -3.6424     0.0000    10.0000 </r>
       <r>    -3.5866     0.0000    10.0000 </r>
       <r>    -3.5307     0.0000    10.0000 </r>
       <r>    -3.4749     0.0000    10.0000 </r>
       <r>    -3.4190     0.0000    10.0000 </r>
       <r>    -3.3631     0.0000    10.0000 </r>
       <r>    -3.3073     0.0000    10.0000 </r>
       <r>    -3.2514     0.0000    10.0000 </r>
       <r>    -3.1956     0.0000    10.0000 </r>
       <r>    -3.1397     0.0000    10.0000 </r>
       <r>    -3.0839     0.0000    10.0000 </r>
       <r>    -3.0280     0.0000    10.0000 </r>
       <r>    -2.9721     0.0000    10.0000 </r>
       <r>    -2.9163     0.0000    10.0000 </r>
       <r>    -2.8604     0.0000    10.0000 </r>
       <r>    -2.8046     0.0000    10.0000 </r>
       <r>    -2.7487     0.0000    10.0000 </r>
       <r>    -2.6929     0.0000    10.0000 </r>
       <r>    -2.6370     0.0000    10.0000 </r>
       <r>    -2.5811     0.0000    10.0000 </r>
       <r>    -2.5253     0.0000    10.0000 </r>
       <r>    -2.4694     0.0000    10.0000 </r>
       <r>    -2.4136     0.0000    10.0000 </r>
       <r>    -2.3577     0.0000    10.0000 </r>
       <r>    -2.3019     0.0000    10.0000 </r>
       <r>    -2.2460     0.0000    10.0000 </r>
       <r>    -2.1901     0.0000    10.0000 </r>
       <r>    -2.1343     0.0000    10.0000 </r>
       <r>    -2.0784     0.0000    10.0000 </r>
       <r>    -2.0226     0.0000    10.0000 </r>
       <r>    -1.9667     0.0000    10.0000 </r>
       <r>    -1.9109     0.0000    10.0000 </r>
       <r>    -1.8550     0.0000    10.0000 </r>
       <r>    -1.7991     0.0000    10.0000 </r>
       <r>    -1.7433     0.0000    10.0000 </r>
       <r>    -1.6874     0.0000    10.0000 </r>
       <r>    -1.6316     0.0000    10.0000 </r>
       <r>    -1.5757     0.0000    10.0000 </r>
       <r>    -1.5199     0.0000    10.0000 </r>
       <r>    -1.4640     0.0000    10.0000 </r>
       <r>    -1.4081     0.0000    10.0000 </r>
       <r>    -1.3523     0.0000    10.0000 </r>
       <r>    -1.2964     0.0000    10.0000 </r>
       <r>    -1.2406     0.0000    10.0000 </r>
       <r>    -1.1847     0.0000    10.0000 </r>
       <r>    -1.1289     0.0000    10.0000 </r>
       <r>    -1.0730     0.0000    10.0000 </r>
       <r>    -1.0171     0.0000    10.0000 </r>
       <r>    -0.9613     0.0000    10.0000 </r>
       <r>    -0.9054     0.0000    10.0000 </r>
       <r>    -0.8496     0.0000    10.0000 </r>
       <r>    -0.7937     0.0002    10.0000 </r>
       <r>    -0.7379     0.0014    10.0001 </r>
       <r>    -0.6820     0.0069    10.0005 </r>
       <r>    -0.6261     0.0297    10.0021 </r>
       <r>    -0.5703     0.1103    10.0083 </r>
       <r>    -0.5144     0.3515    10.0279 </r>
       <r>    -0.4586     0.9623    10.0817 </r>
       <r>    -0.4027     2.2624    10.2080 </r>
       <r>    -0.3469     4.5688    10.4632 </r>
       <r>    -0.2910     7.9261    10.9060 </r>
       <r>    -0.2351    11.8141    11.5659 </r>
       <r>    -0.1793    15.1313    12.4111 </r>
       <r>    -0.1234    16.6547    13.3414 </r>
       <r>    -0.0676    15.7555    14.2214 </r>
       <r>    -0.0117    12.8122    14.9371 </r>
       <r>     0.0441     8.9603    15.4376 </r>
       <r>     0.1000     5.4051    15.7395 </r>
       <r>     0.1559     2.8681    15.8997 </r>
       <r>     0.2117     1.5093    15.9840 </r>
       <r>     0.2676     1.2040    16.0512 </r>
       <r>     0.3234     1.8333    16.1536 </r>
       <r>     0.3793     3.3522    16.3409 </r>
       <r>     0.4351     5.6239    16.6550 </r>
       <r>     0.4910     8.2098    17.1136 </r>
       <r>     0.5469    10.3752    17.6931 </r>
       <r>     0.6027    11.4311    18.3316 </r>
       <r>     0.6586    11.2137    18.9580 </r>
       <r>     0.7144    10.2818    19.5323 </r>
       <r>     0.7703     9.5795    20.0674 </r>
       <r>     0.8261     9.7604    20.6126 </r>
       <r>     0.8820    10.6933    21.2099 </r>
       <r>     0.9379    11.5494    21.8550 </r>
       <r>     0.9937    11.4119    22.4924 </r>
       <r>     1.0496     9.9230    23.0467 </r>
       <r>     1.1054     7.4706    23.4640 </r>
       <r>     1.1613     4.8394    23.7343 </r>
       <r>     1.2171     2.6911    23.8846 </r>
       <r>     1.2730     1.2835    23.9563 </r>
       <r>     1.3289     0.5248    23.9856 </r>
       <r>     1.3847     0.1840    23.9959 </r>
       <r>     1.4406     0.0553    23.9990 </r>
       <r>     1.4964     0.0142    23.9998 </r>
       <r>     1.5523     0.0031    24.0000 </r>
       <r>     1.6081     0.0006    24.0000 </r>
       <r>     1.6640     0.0001    24.0000 </r>
       <r>     1.7199     0.0000    24.0000 </r>
       <r>     1.7757     0.0000    24.0000 </r>
       <r>     1.8316     0.0000    24.0000 </r>
       <r>     1.8874     0.0000    24.0000 </r>
       <r>     1.9433     0.0000    24.0000 </r>
       <r>     1.9991     0.0000    24.0000 </r>
       <r>     2.0550     0.0000    24.0000 </r>
       <r>     2.1109     0.0000    24.0000 </r>
       <r>     2.1667     0.0000    24.0000 </r>
       <r>     2.2226     0.0000    24.0000 </r>
       <r>     2.2784     0.0000    24.0000 </r>
       <r>     2.3343     0.0000    24.0000 </r>
       <r>     2.3901     0.0000    24.0000 </r>
       <r>     2.4460     0.0000    24.0000 </r>
       <r>     2.5019     0.0000    24.0000 </r>
       <r>     2.5577     0.0000    24.0000 </r>
       <r>     2.6136     0.0000    24.0000 </r>
       <r>     2.6694     0.0000    24.0000 </r>
       <r>     2.7253     0.0000    24.0000 </r>
       <r>     2.7811     0.0000    24.0000 </r>
       <r>     2.8370     0.0000    24.0000 </r>
       <r>     2.8929     0.0000    24.0000 </r>
       <r>     2.9487     0.0000    24.0000 </r>
      </set>
     </set>
    </array>
   </total>
  </dos>
 </calculation>
 <structure name="finalpos" >
  <crystal>
   <varray name="basis" >
    <v>      15.00000000       0.00000000       0.00000000 </v>
    <v>       0.00000000      15.00000000       0.00000000 </v>
    <v>       0.00000000       0.00000000       9.60000000 </v>
   </varray>
   <i name="volume">   2160.00000000 </i>
   <varray name="rec_basis" >
    <v>       0.06666667      -0.00000000       0.00000000 </v>
    <v>       0.00000000       0.06666667       0.00000000 </v>
    <v>      -0.00000000      -0.00000000       0.10416667 </v>
   </varray>
  </crystal>
  <varray name="positions" >
   <v>       0.00000000       0.00000000       0.00000000 </v>
   <v>       0.00000000       0.00000000       0.12500000 </v>
   <v>       0.00000000       0.00000000       0.25000000 </v>
   <v>       0.00000000       0.00000000       0.37500000 </v>
   <v>       0.00000000       0.00000000       0.50000000 </v>
   <v>       0.00000000       0.00000000       0.62500000 </v>
   <v>       0.00000000       0.00000000       0.75000000 </v>
   <v>       0.00000000       0.00000000       0.87500000 </v>
  </varray>
 </structure>
</modeling>
