
The number of threads in each node for OpenMP parallelization is 1.


*******************************************************
*******************************************************
 Welcome to OpenMX   Ver. 3.9.9                           
 Copyright (C), 2002-2019, T. Ozaki                    
 OpenMX comes with ABSOLUTELY NO WARRANTY.             
 This is free software, and you are welcome to         
 redistribute it under the constitution of the GNU-GPL.
*******************************************************
*******************************************************



<Input_std>  Your input file was normally read.
<Input_std>  The system includes 1 species and 4 atoms.

*******************************************************
                     PAO and VPS                       
*******************************************************

<SetPara_DFT>  PAOs of species H were normally found.
<SetPara_DFT>  VPSs of species H were normally found.
               H_CA19.vps is j-dependent.
               In case of scf.SpinOrbit.Coupling=off,
               j-dependent pseudo potentials are averaged by j-degeneracy,
               which corresponds to a scalar relativistic treatment.

*******************************************************
     Fourier transform of PAO and projectors of VNL    
*******************************************************

<FT_PAO>          Fourier transform of pseudo atomic orbitals
<FT_NLP>          Fourier transform of non-local projectors
<FT_ProExpn_VNA>  Fourier transform of VNA separable projectors
<FT_VNA>          Fourier transform of VNA potentials
<FT_ProductPAO>   Fourier transform of product of PAOs

*******************************************************
  Allocation of atoms to processors at MD_iter=    1     
*******************************************************

 proc =   0  # of atoms=   4  estimated weight=         4.00000




*******************************************************
        Analysis of neighbors and setting of grids        
*******************************************************

TFNAN=      44   Average FNAN=  11.00000
TSNAN=       0   Average SNAN=   0.00000
<truncation> CpyCell= 1 ct_AN=   1 FNAN SNAN  11   0
<truncation> CpyCell= 1 ct_AN=   2 FNAN SNAN  11   0
<truncation> CpyCell= 1 ct_AN=   3 FNAN SNAN  11   0
<truncation> CpyCell= 1 ct_AN=   4 FNAN SNAN  11   0
TFNAN=      76   Average FNAN=  19.00000
TSNAN=       0   Average SNAN=   0.00000
<truncation> CpyCell= 2 ct_AN=   1 FNAN SNAN  19   0
<truncation> CpyCell= 2 ct_AN=   2 FNAN SNAN  19   0
<truncation> CpyCell= 2 ct_AN=   3 FNAN SNAN  19   0
<truncation> CpyCell= 2 ct_AN=   4 FNAN SNAN  19   0
TFNAN=      96   Average FNAN=  24.00000
TSNAN=       6   Average SNAN=   1.50000
<truncation> CpyCell= 3 ct_AN=   1 FNAN SNAN  24   1
<truncation> CpyCell= 3 ct_AN=   2 FNAN SNAN  24   2
<truncation> CpyCell= 3 ct_AN=   3 FNAN SNAN  24   2
<truncation> CpyCell= 3 ct_AN=   4 FNAN SNAN  24   1
TFNAN=      96   Average FNAN=  24.00000
TSNAN=      12   Average SNAN=   3.00000
<truncation> CpyCell= 4 ct_AN=   1 FNAN SNAN  24   3
<truncation> CpyCell= 4 ct_AN=   2 FNAN SNAN  24   3
<truncation> CpyCell= 4 ct_AN=   3 FNAN SNAN  24   3
<truncation> CpyCell= 4 ct_AN=   4 FNAN SNAN  24   3
TFNAN=      96   Average FNAN=  24.00000
TSNAN=      12   Average SNAN=   3.00000
<truncation> CpyCell= 4 ct_AN=   1 FNAN SNAN  24   3
<truncation> CpyCell= 4 ct_AN=   2 FNAN SNAN  24   3
<truncation> CpyCell= 4 ct_AN=   3 FNAN SNAN  24   3
<truncation> CpyCell= 4 ct_AN=   4 FNAN SNAN  24   3
<Check_System> The system is chain.
lattice vectors (bohr)
A  =  3.779451977158,  0.000000000000,  0.000000000000
B  =  0.000000000000, 28.345889828684,  0.000000000000
C  =  0.000000000000,  0.000000000000, 28.345889828684
reciprocal lattice vectors (bohr^-1)
RA =  1.662459357905,  0.000000000000,  0.000000000000
RB =  0.000000000000,  0.221661247721,  0.000000000000
RC =  0.000000000000,  0.000000000000,  0.221661247721
Grid_Origin  0.000000000000 -13.700513417197 -13.700513417197
Cell_Volume =   3036.749866696867 (Bohr^3)
GridVol     =      0.843541629638 (Bohr^3)
Grid_Origin  0.000000000000 -13.700513417197 -13.700513417197
Cell_Volume =   3036.749866696867 (Bohr^3)
GridVol     =      0.843541629638 (Bohr^3)
<UCell_Box> Info. of cutoff energy and num. of grids
lattice vectors (bohr)
A  =  3.779451977158,  0.000000000000,  0.000000000000
B  =  0.000000000000, 28.345889828684,  0.000000000000
C  =  0.000000000000,  0.000000000000, 28.345889828684
reciprocal lattice vectors (bohr^-1)
RA =  1.662459357905,  0.000000000000,  0.000000000000
RB =  0.000000000000,  0.221661247721,  0.000000000000
RC =  0.000000000000,  0.000000000000,  0.221661247721
Required cutoff energy (Ryd) for 3D-grids = 11.0248
    Used cutoff energy (Ryd) for 3D-grids = 11.0551, 11.0551, 11.0551
Num. of grids of a-, b-, and c-axes =  4, 30, 30
Grid_Origin  0.000000000000 -13.700513417197 -13.700513417197
Cell_Volume =   3036.749866696867 (Bohr^3)
GridVol     =      0.843541629638 (Bohr^3)
Cell vectors (bohr) of the grid cell (gtv)
  gtv_a =  0.944862994289,  0.000000000000,  0.000000000000
  gtv_b =  0.000000000000,  0.944862994289,  0.000000000000
  gtv_c =  0.000000000000,  0.000000000000,  0.944862994289
  |gtv_a| =  0.944862994289
  |gtv_b| =  0.944862994289
  |gtv_c| =  0.944862994289
Num. of grids overlapping with atom    1 = 1056
Num. of grids overlapping with atom    2 = 1056
Num. of grids overlapping with atom    3 = 1056
Num. of grids overlapping with atom    4 = 1056
<QDFT> Parameters
N = 4	M = 2	Nl = 3

*******************************************************
             SCF calculation at MD = 1                
*******************************************************

<MD= 1>  Calculation of the overlap matrix
<MD= 1>  Calculation of the nonlocal matrix
<MD= 1>  Calculation of the VNA projector matrix

******************* MD= 1  SCF= 1 *******************
<VQE>  Solving the eigenvalue problem...
vqe time elapsed: 0m 10s

    1    H  MulP   0.5000  0.5000 sum   1.0000
    2    H  MulP   0.5000  0.5000 sum   1.0000
    3    H  MulP   0.5000  0.5000 sum   1.0000
    4    H  MulP   0.5000  0.5000 sum   1.0000
 Sum of MulP: up   =     2.00000 down          =     2.00000
              total=     4.00000 ideal(neutral)=     4.00000
<DFT>  Total Spin Moment (muB) =  0.000000000000
<DFT>  Mixing_weight= 0.300000000000
<DFT>  Uele   =   -1.766242748324  dUele     =   1.000000000000
<DFT>  NormRD =    1.000000000000  Criterion =   0.000000036749

******************* MD= 1  SCF= 2 *******************
<Poisson>  Poisson's equation using FFT...
<Set_Hamiltonian>  Hamiltonian matrix for VNA+dVH+Vxc...
<VQE>  Solving the eigenvalue problem...
vqe time elapsed: 0m 0s

    1    H  MulP   0.5000  0.5000 sum   1.0000
    2    H  MulP   0.5000  0.5000 sum   1.0000
    3    H  MulP   0.5000  0.5000 sum   1.0000
    4    H  MulP   0.5000  0.5000 sum   1.0000
 Sum of MulP: up   =     2.00000 down          =     2.00000
              total=     4.00000 ideal(neutral)=     4.00000
<DFT>  Total Spin Moment (muB) =  0.000000000000
<DFT>  Mixing_weight= 0.307632137840
<DFT>  Uele   =   -1.646074561983  dUele     =   0.120168186340
<DFT>  NormRD =    0.157509680617  Criterion =   0.000000036749

******************* MD= 1  SCF= 3 *******************
<Poisson>  Poisson's equation using FFT...
<Set_Hamiltonian>  Hamiltonian matrix for VNA+dVH+Vxc...
<VQE>  Solving the eigenvalue problem...
vqe time elapsed: 0m 0s

    1    H  MulP   0.5000  0.5000 sum   1.0000
    2    H  MulP   0.5000  0.5000 sum   1.0000
    3    H  MulP   0.5000  0.5000 sum   1.0000
    4    H  MulP   0.5000  0.5000 sum   1.0000
 Sum of MulP: up   =     2.00000 down          =     2.00000
              total=     4.00000 ideal(neutral)=     4.00000
<DFT>  Total Spin Moment (muB) =  0.000000000000
<DFT>  Mixing_weight= 0.400000000000
<DFT>  Uele   =   -1.537892639431  dUele     =   0.108181922552
<DFT>  NormRD =    0.109054640838  Criterion =   0.000000036749

******************* MD= 1  SCF= 4 *******************
<Poisson>  Poisson's equation using FFT...
<Set_Hamiltonian>  Hamiltonian matrix for VNA+dVH+Vxc...
<VQE>  Solving the eigenvalue problem...
vqe time elapsed: 0m 0s

    1    H  MulP   0.5000  0.5000 sum   1.0000
    2    H  MulP   0.5000  0.5000 sum   1.0000
    3    H  MulP   0.5000  0.5000 sum   1.0000
    4    H  MulP   0.5000  0.5000 sum   1.0000
 Sum of MulP: up   =     2.00000 down          =     2.00000
              total=     4.00000 ideal(neutral)=     4.00000
<DFT>  Total Spin Moment (muB) =  0.000000000000
<DFT>  Mixing_weight= 0.400000000000
<DFT>  Uele   =   -1.375619755602  dUele     =   0.162272883829
<DFT>  NormRD =    0.000037324515  Criterion =   0.000000036749

******************* MD= 1  SCF= 5 *******************
<Poisson>  Poisson's equation using FFT...
<Set_Hamiltonian>  Hamiltonian matrix for VNA+dVH+Vxc...
<VQE>  Solving the eigenvalue problem...
vqe time elapsed: 0m 0s

    1    H  MulP   0.5000  0.5000 sum   1.0000
    2    H  MulP   0.5000  0.5000 sum   1.0000
    3    H  MulP   0.5000  0.5000 sum   1.0000
    4    H  MulP   0.5000  0.5000 sum   1.0000
 Sum of MulP: up   =     2.00000 down          =     2.00000
              total=     4.00000 ideal(neutral)=     4.00000
<DFT>  Total Spin Moment (muB) =  0.000000000000
<DFT>  Mixing_weight= 0.400000000000
<DFT>  Uele   =   -1.375619755602  dUele     =   0.000000000000
<DFT>  NormRD =    0.000030467286  Criterion =   0.000000036749
<MD= 1>  Force calculation
  Force calculation #1
  Force calculation #2
  Force calculation #3
  Force calculation #4
  Force calculation #5
<MD= 1>  Total Energy
  Force calculation #6
  Force calculation #7

*******************************************************
                  Dipole moment (Debye)                 
*******************************************************

 Absolute D        0.58467601

                      Dx                Dy                Dz
 Total              0.58467601       -0.00000000       -0.00000000
 Core              14.40962040        0.00000000        0.00000000
 Electron         -13.82494439       -0.00000000       -0.00000000
 Back ground       -0.00000000        0.00000000       -0.00000000

*******************************************************
                Total Energy (Hartree) at MD = 1        
*******************************************************

  Uele  =      -1.375619755602

  Ukin  =       5.202987667300
  UH0   =     -11.732611673093
  UH1   =       0.053360173256
  Una   =      -5.748042941953
  Unl   =       0.721916703192
  Uxc0  =      -0.790709290121
  Uxc1  =      -0.790709290121
  Ucore =      13.137187918104
  Uhub  =       0.000000000000
  Ucs   =       0.000000000000
  Uzs   =       0.000000000000
  Uzo   =       0.000000000000
  Uef   =       0.000000000000
  UvdW  =       0.000000000000
  Uch   =       0.000000000000
  Utot  =       0.053379266563

  UpV   =       0.000000000000
  Enpy  =       0.053379266563
  Note:

  Uele:   band energy
  Ukin:   kinetic energy
  UH0:    electric part of screened Coulomb energy
  UH1:    difference electron-electron Coulomb energy
  Una:    neutral atom potential energy
  Unl:    non-local potential energy
  Uxc0:   exchange-correlation energy for alpha spin
  Uxc1:   exchange-correlation energy for beta spin
  Ucore:  core-core Coulomb energy
  Uhub:   LDA+U energy
  Ucs:    constraint energy for spin orientation
  Uzs:    Zeeman term for spin magnetic moment
  Uzo:    Zeeman term for orbital magnetic moment
  Uef:    electric energy by electric field
  UvdW:   semi-empirical vdW energy 
  Uch:    penalty term to create a core hole
  UpV:    pressure times volume
  Enpy:   Enthalpy = Utot + UpV
  (see also PRB 72, 045121(2005) for the energy contributions)


*******************************************************
           Computational times (s) at MD = 1            
*******************************************************

  DFT in total      =   21.80171

  Set_OLP_Kin       =    0.13596
  Set_Nonlocal      =    0.21221
  Set_ProExpn_VNA   =    0.32492
  Set_Hamiltonian   =    0.00272
  Poisson           =    0.00150
  diagonalization   =   13.61365
  Mixing_DM         =    0.00006
  Force             =    0.05646
  Total_Energy      =    1.50146
  Set_Aden_Grid     =    0.00084
  Set_Orbitals_Grid =    0.00100
  Set_Density_Grid  =    0.00293
  RestartFileDFT    =    0.34826
  Mulliken_Charge   =    0.02541
  FFT(2D)_Density   =    0.00000

The SCF was achieved at MD=   1

*******************************************************
             MD or geometry opt. at MD = 1              
*******************************************************


outputting data on grids to files...


***********************************************************
***********************************************************
               Computational Time (second)                 
***********************************************************
***********************************************************

                               Min_ID   Min_Time       Max_ID   Max_Time
   Total Computational Time =     0       25.693          0       25.693
   readfile                 =     0        2.416          0        2.416
   truncation               =     0        0.096          0        0.096
   MD_pac                   =     0        0.134          0        0.134
   OutData                  =     0        0.760          0        0.760
   DFT                      =     0       21.802          0       21.802

*** In DFT ***

   Set_OLP_Kin              =     0        0.136          0        0.136
   Set_Nonlocal             =     0        0.212          0        0.212
   Set_ProExpn_VNA          =     0        0.325          0        0.325
   Set_Hamiltonian          =     0        0.003          0        0.003
   Poisson                  =     0        0.001          0        0.001
   Diagonalization          =     0       13.614          0       13.614
   Mixing_DM                =     0        0.000          0        0.000
   Force                    =     0        0.056          0        0.056
   Total_Energy             =     0        1.501          0        1.501
   Set_Aden_Grid            =     0        0.001          0        0.001
   Set_Orbitals_Grid        =     0        0.001          0        0.001
   Set_Density_Grid         =     0        0.003          0        0.003
   RestartFileDFT           =     0        0.348          0        0.348
   Mulliken_Charge          =     0        0.025          0        0.025
   FFT(2D)_Density          =     0        0.000          0        0.000
   Others                   =     0        5.574          0        5.574

The calculation was normally finished.
<DFT> Parameters
method = openmx-vqe
N = 4  R = 0.5  np = 1
dir_output = /home/yerin/qdft/hchain/output/N4/openmx-vqe_R0.50

run_openmx Done: 0m 27s


The number of threads in each node for OpenMP parallelization is 1.


*******************************************************
*******************************************************
 Welcome to OpenMX   Ver. 3.9.9                           
 Copyright (C), 2002-2019, T. Ozaki                    
 OpenMX comes with ABSOLUTELY NO WARRANTY.             
 This is free software, and you are welcome to         
 redistribute it under the constitution of the GNU-GPL.
*******************************************************
*******************************************************



<Input_std>  Your input file was normally read.
<Input_std>  The system includes 1 species and 4 atoms.

*******************************************************
                     PAO and VPS                       
*******************************************************

<SetPara_DFT>  PAOs of species H were normally found.
<SetPara_DFT>  VPSs of species H were normally found.
               H_CA19.vps is j-dependent.
               In case of scf.SpinOrbit.Coupling=off,
               j-dependent pseudo potentials are averaged by j-degeneracy,
               which corresponds to a scalar relativistic treatment.

*******************************************************
     Fourier transform of PAO and projectors of VNL    
*******************************************************

<FT_PAO>          Fourier transform of pseudo atomic orbitals
<FT_NLP>          Fourier transform of non-local projectors
<FT_ProExpn_VNA>  Fourier transform of VNA separable projectors
<FT_VNA>          Fourier transform of VNA potentials
<FT_ProductPAO>   Fourier transform of product of PAOs

*******************************************************
  Allocation of atoms to processors at MD_iter=    1     
*******************************************************

 proc =   0  # of atoms=   4  estimated weight=         4.00000




*******************************************************
        Analysis of neighbors and setting of grids        
*******************************************************

TFNAN=      42   Average FNAN=  10.50000
TSNAN=       0   Average SNAN=   0.00000
<truncation> CpyCell= 1 ct_AN=   1 FNAN SNAN  10   0
<truncation> CpyCell= 1 ct_AN=   2 FNAN SNAN  11   0
<truncation> CpyCell= 1 ct_AN=   3 FNAN SNAN  11   0
<truncation> CpyCell= 1 ct_AN=   4 FNAN SNAN  10   0
TFNAN=      48   Average FNAN=  12.00000
TSNAN=       6   Average SNAN=   1.50000
<truncation> CpyCell= 2 ct_AN=   1 FNAN SNAN  12   1
<truncation> CpyCell= 2 ct_AN=   2 FNAN SNAN  12   2
<truncation> CpyCell= 2 ct_AN=   3 FNAN SNAN  12   2
<truncation> CpyCell= 2 ct_AN=   4 FNAN SNAN  12   1
TFNAN=      48   Average FNAN=  12.00000
TSNAN=       6   Average SNAN=   1.50000
<truncation> CpyCell= 3 ct_AN=   1 FNAN SNAN  12   1
<truncation> CpyCell= 3 ct_AN=   2 FNAN SNAN  12   2
<truncation> CpyCell= 3 ct_AN=   3 FNAN SNAN  12   2
<truncation> CpyCell= 3 ct_AN=   4 FNAN SNAN  12   1
TFNAN=      48   Average FNAN=  12.00000
TSNAN=       6   Average SNAN=   1.50000
<truncation> CpyCell= 3 ct_AN=   1 FNAN SNAN  12   1
<truncation> CpyCell= 3 ct_AN=   2 FNAN SNAN  12   2
<truncation> CpyCell= 3 ct_AN=   3 FNAN SNAN  12   2
<truncation> CpyCell= 3 ct_AN=   4 FNAN SNAN  12   1
<Check_System> The system is chain.
lattice vectors (bohr)
A  =  7.558903954316,  0.000000000000,  0.000000000000
B  =  0.000000000000, 28.345889828684,  0.000000000000
C  =  0.000000000000,  0.000000000000, 28.345889828684
reciprocal lattice vectors (bohr^-1)
RA =  0.831229678953,  0.000000000000,  0.000000000000
RB =  0.000000000000,  0.221661247721,  0.000000000000
RC =  0.000000000000,  0.000000000000,  0.221661247721
Grid_Origin -0.472431497145 -13.700513417197 -13.700513417197
Cell_Volume =   6073.499733393734 (Bohr^3)
GridVol     =      0.843541629638 (Bohr^3)
Grid_Origin -0.472431497145 -13.700513417197 -13.700513417197
Cell_Volume =   6073.499733393734 (Bohr^3)
GridVol     =      0.843541629638 (Bohr^3)
<UCell_Box> Info. of cutoff energy and num. of grids
lattice vectors (bohr)
A  =  7.558903954316,  0.000000000000,  0.000000000000
B  =  0.000000000000, 28.345889828684,  0.000000000000
C  =  0.000000000000,  0.000000000000, 28.345889828684
reciprocal lattice vectors (bohr^-1)
RA =  0.831229678953,  0.000000000000,  0.000000000000
RB =  0.000000000000,  0.221661247721,  0.000000000000
RC =  0.000000000000,  0.000000000000,  0.221661247721
Required cutoff energy (Ryd) for 3D-grids = 11.0248
    Used cutoff energy (Ryd) for 3D-grids = 11.0551, 11.0551, 11.0551
Num. of grids of a-, b-, and c-axes =  8, 30, 30
Grid_Origin -0.472431497145 -13.700513417197 -13.700513417197
Cell_Volume =   6073.499733393734 (Bohr^3)
GridVol     =      0.843541629638 (Bohr^3)
Cell vectors (bohr) of the grid cell (gtv)
  gtv_a =  0.944862994289,  0.000000000000,  0.000000000000
  gtv_b =  0.000000000000,  0.944862994289,  0.000000000000
  gtv_c =  0.000000000000,  0.000000000000,  0.944862994289
  |gtv_a| =  0.944862994289
  |gtv_b| =  0.944862994289
  |gtv_c| =  0.944862994289
Num. of grids overlapping with atom    1 = 1064
Num. of grids overlapping with atom    2 = 1064
Num. of grids overlapping with atom    3 = 1064
Num. of grids overlapping with atom    4 = 1064
<QDFT> Parameters
N = 4	M = 2	Nl = 3

*******************************************************
             SCF calculation at MD = 1                
*******************************************************

<MD= 1>  Calculation of the overlap matrix
<MD= 1>  Calculation of the nonlocal matrix
<MD= 1>  Calculation of the VNA projector matrix

******************* MD= 1  SCF= 1 *******************
<VQE>  Solving the eigenvalue problem...
vqe time elapsed: 0m 10s

    1    H  MulP   0.5000  0.5000 sum   1.0000
    2    H  MulP   0.5000  0.5000 sum   1.0000
    3    H  MulP   0.5000  0.5000 sum   1.0000
    4    H  MulP   0.5000  0.5000 sum   1.0000
 Sum of MulP: up   =     2.00000 down          =     2.00000
              total=     4.00000 ideal(neutral)=     4.00000
<DFT>  Total Spin Moment (muB) =  0.000000000000
<DFT>  Mixing_weight= 0.300000000000
<DFT>  Uele   =   -1.445121699063  dUele     =   1.000000000000
<DFT>  NormRD =    1.000000000000  Criterion =   0.000000036749

******************* MD= 1  SCF= 2 *******************
<Poisson>  Poisson's equation using FFT...
<Set_Hamiltonian>  Hamiltonian matrix for VNA+dVH+Vxc...
<VQE>  Solving the eigenvalue problem...
vqe time elapsed: 0m 0s

    1    H  MulP   0.5000  0.5000 sum   1.0000
    2    H  MulP   0.5000  0.5000 sum   1.0000
    3    H  MulP   0.5000  0.5000 sum   1.0000
    4    H  MulP   0.5000  0.5000 sum   1.0000
 Sum of MulP: up   =     2.00000 down          =     2.00000
              total=     4.00000 ideal(neutral)=     4.00000
<DFT>  Total Spin Moment (muB) =  0.000000000000
<DFT>  Mixing_weight= 0.300377265423
<DFT>  Uele   =   -1.412949392949  dUele     =   0.032172306114
<DFT>  NormRD =    0.035439694695  Criterion =   0.000000036749

******************* MD= 1  SCF= 3 *******************
<Poisson>  Poisson's equation using FFT...
<Set_Hamiltonian>  Hamiltonian matrix for VNA+dVH+Vxc...
<VQE>  Solving the eigenvalue problem...
vqe time elapsed: 0m 0s

    1    H  MulP   0.5000  0.5000 sum   1.0000
    2    H  MulP   0.5000  0.5000 sum   1.0000
    3    H  MulP   0.5000  0.5000 sum   1.0000
    4    H  MulP   0.5000  0.5000 sum   1.0000
 Sum of MulP: up   =     2.00000 down          =     2.00000
              total=     4.00000 ideal(neutral)=     4.00000
<DFT>  Total Spin Moment (muB) =  0.000000000000
<DFT>  Mixing_weight= 0.400000000000
<DFT>  Uele   =   -1.382975783928  dUele     =   0.029973609021
<DFT>  NormRD =    0.024794416115  Criterion =   0.000000036749

******************* MD= 1  SCF= 4 *******************
<Poisson>  Poisson's equation using FFT...
<Set_Hamiltonian>  Hamiltonian matrix for VNA+dVH+Vxc...
<VQE>  Solving the eigenvalue problem...
vqe time elapsed: 0m 0s

    1    H  MulP   0.5000  0.5000 sum   1.0000
    2    H  MulP   0.5000  0.5000 sum   1.0000
    3    H  MulP   0.5000  0.5000 sum   1.0000
    4    H  MulP   0.5000  0.5000 sum   1.0000
 Sum of MulP: up   =     2.00000 down          =     2.00000
              total=     4.00000 ideal(neutral)=     4.00000
<DFT>  Total Spin Moment (muB) =  0.000000000000
<DFT>  Mixing_weight= 0.400000000000
<DFT>  Uele   =   -1.338015370399  dUele     =   0.044960413529
<DFT>  NormRD =    0.000047328073  Criterion =   0.000000036749

******************* MD= 1  SCF= 5 *******************
<Poisson>  Poisson's equation using FFT...
<Set_Hamiltonian>  Hamiltonian matrix for VNA+dVH+Vxc...
<VQE>  Solving the eigenvalue problem...
vqe time elapsed: 0m 0s

    1    H  MulP   0.5000  0.5000 sum   1.0000
    2    H  MulP   0.5000  0.5000 sum   1.0000
    3    H  MulP   0.5000  0.5000 sum   1.0000
    4    H  MulP   0.5000  0.5000 sum   1.0000
 Sum of MulP: up   =     2.00000 down          =     2.00000
              total=     4.00000 ideal(neutral)=     4.00000
<DFT>  Total Spin Moment (muB) =  0.000000000000
<DFT>  Mixing_weight= 0.021417469225
<DFT>  Uele   =   -1.338015370420  dUele     =   0.000000000021
<DFT>  NormRD =    0.000198982568  Criterion =   0.000000036749
<MD= 1>  Force calculation
  Force calculation #1
  Force calculation #2
  Force calculation #3
  Force calculation #4
  Force calculation #5
<MD= 1>  Total Energy
  Force calculation #6
  Force calculation #7

*******************************************************
                  Dipole moment (Debye)                 
*******************************************************

 Absolute D        0.82882897

                      Dx                Dy                Dz
 Total              0.82882897       -0.00000000       -0.00000000
 Core              28.81924079        0.00000000        0.00000000
 Electron         -27.99041182       -0.00000000       -0.00000000
 Back ground       -0.00000000        0.00000000       -0.00000000

*******************************************************
                Total Energy (Hartree) at MD = 1        
*******************************************************

  Uele  =      -1.338015370420

  Ukin  =       2.207829643272
  UH0   =      -5.953646712586
  UH1   =       0.004233425098
  Una   =      -2.465293964068
  Unl   =       0.312713624811
  Uxc0  =      -0.612475467666
  Uxc1  =      -0.612475467666
  Ucore =       5.185937040200
  Uhub  =       0.000000000000
  Ucs   =       0.000000000000
  Uzs   =       0.000000000000
  Uzo   =       0.000000000000
  Uef   =       0.000000000000
  UvdW  =       0.000000000000
  Uch   =       0.000000000000
  Utot  =      -1.933177878605

  UpV   =       0.000000000000
  Enpy  =      -1.933177878605
  Note:

  Uele:   band energy
  Ukin:   kinetic energy
  UH0:    electric part of screened Coulomb energy
  UH1:    difference electron-electron Coulomb energy
  Una:    neutral atom potential energy
  Unl:    non-local potential energy
  Uxc0:   exchange-correlation energy for alpha spin
  Uxc1:   exchange-correlation energy for beta spin
  Ucore:  core-core Coulomb energy
  Uhub:   LDA+U energy
  Ucs:    constraint energy for spin orientation
  Uzs:    Zeeman term for spin magnetic moment
  Uzo:    Zeeman term for orbital magnetic moment
  Uef:    electric energy by electric field
  UvdW:   semi-empirical vdW energy 
  Uch:    penalty term to create a core hole
  UpV:    pressure times volume
  Enpy:   Enthalpy = Utot + UpV
  (see also PRB 72, 045121(2005) for the energy contributions)


*******************************************************
           Computational times (s) at MD = 1            
*******************************************************

  DFT in total      =   19.86720

  Set_OLP_Kin       =    0.09124
  Set_Nonlocal      =    0.11261
  Set_ProExpn_VNA   =    0.21205
  Set_Hamiltonian   =    0.00258
  Poisson           =    0.00250
  diagonalization   =   13.11228
  Mixing_DM         =    0.00005
  Force             =    0.01557
  Total_Energy      =    0.82304
  Set_Aden_Grid     =    0.00099
  Set_Orbitals_Grid =    0.00100
  Set_Density_Grid  =    0.00202
  RestartFileDFT    =    0.26328
  Mulliken_Charge   =    0.01718
  FFT(2D)_Density   =    0.00000

The SCF was achieved at MD=   1

*******************************************************
             MD or geometry opt. at MD = 1              
*******************************************************


outputting data on grids to files...


***********************************************************
***********************************************************
               Computational Time (second)                 
***********************************************************
***********************************************************

                               Min_ID   Min_Time       Max_ID   Max_Time
   Total Computational Time =     0       23.726          0       23.726
   readfile                 =     0        2.388          0        2.388
   truncation               =     0        0.069          0        0.069
   MD_pac                   =     0        0.120          0        0.120
   OutData                  =     0        0.796          0        0.796
   DFT                      =     0       19.867          0       19.867

*** In DFT ***

   Set_OLP_Kin              =     0        0.091          0        0.091
   Set_Nonlocal             =     0        0.113          0        0.113
   Set_ProExpn_VNA          =     0        0.212          0        0.212
   Set_Hamiltonian          =     0        0.003          0        0.003
   Poisson                  =     0        0.002          0        0.002
   Diagonalization          =     0       13.112          0       13.112
   Mixing_DM                =     0        0.000          0        0.000
   Force                    =     0        0.016          0        0.016
   Total_Energy             =     0        0.823          0        0.823
   Set_Aden_Grid            =     0        0.001          0        0.001
   Set_Orbitals_Grid        =     0        0.001          0        0.001
   Set_Density_Grid         =     0        0.002          0        0.002
   RestartFileDFT           =     0        0.263          0        0.263
   Mulliken_Charge          =     0        0.017          0        0.017
   FFT(2D)_Density          =     0        0.000          0        0.000
   Others                   =     0        5.211          0        5.211

The calculation was normally finished.
<DFT> Parameters
method = openmx-vqe
N = 4  R = 1.0  np = 1
dir_output = /home/yerin/qdft/hchain/output/N4/openmx-vqe_R1.00

run_openmx Done: 0m 25s


The number of threads in each node for OpenMP parallelization is 1.


*******************************************************
*******************************************************
 Welcome to OpenMX   Ver. 3.9.9                           
 Copyright (C), 2002-2019, T. Ozaki                    
 OpenMX comes with ABSOLUTELY NO WARRANTY.             
 This is free software, and you are welcome to         
 redistribute it under the constitution of the GNU-GPL.
*******************************************************
*******************************************************



<Input_std>  Your input file was normally read.
<Input_std>  The system includes 1 species and 4 atoms.

*******************************************************
                     PAO and VPS                       
*******************************************************

<SetPara_DFT>  PAOs of species H were normally found.
<SetPara_DFT>  VPSs of species H were normally found.
               H_CA19.vps is j-dependent.
               In case of scf.SpinOrbit.Coupling=off,
               j-dependent pseudo potentials are averaged by j-degeneracy,
               which corresponds to a scalar relativistic treatment.

*******************************************************
     Fourier transform of PAO and projectors of VNL    
*******************************************************

<FT_PAO>          Fourier transform of pseudo atomic orbitals
<FT_NLP>          Fourier transform of non-local projectors
<FT_ProExpn_VNA>  Fourier transform of VNA separable projectors
<FT_VNA>          Fourier transform of VNA potentials
<FT_ProductPAO>   Fourier transform of product of PAOs

*******************************************************
  Allocation of atoms to processors at MD_iter=    1     
*******************************************************

 proc =   0  # of atoms=   4  estimated weight=         4.00000




*******************************************************
        Analysis of neighbors and setting of grids        
*******************************************************

TFNAN=      32   Average FNAN=   8.00000
TSNAN=       0   Average SNAN=   0.00000
<truncation> CpyCell= 1 ct_AN=   1 FNAN SNAN   8   0
<truncation> CpyCell= 1 ct_AN=   2 FNAN SNAN   8   0
<truncation> CpyCell= 1 ct_AN=   3 FNAN SNAN   8   0
<truncation> CpyCell= 1 ct_AN=   4 FNAN SNAN   8   0
TFNAN=      32   Average FNAN=   8.00000
TSNAN=       0   Average SNAN=   0.00000
<truncation> CpyCell= 2 ct_AN=   1 FNAN SNAN   8   0
<truncation> CpyCell= 2 ct_AN=   2 FNAN SNAN   8   0
<truncation> CpyCell= 2 ct_AN=   3 FNAN SNAN   8   0
<truncation> CpyCell= 2 ct_AN=   4 FNAN SNAN   8   0
TFNAN=      32   Average FNAN=   8.00000
TSNAN=       0   Average SNAN=   0.00000
<truncation> CpyCell= 2 ct_AN=   1 FNAN SNAN   8   0
<truncation> CpyCell= 2 ct_AN=   2 FNAN SNAN   8   0
<truncation> CpyCell= 2 ct_AN=   3 FNAN SNAN   8   0
<truncation> CpyCell= 2 ct_AN=   4 FNAN SNAN   8   0
<Check_System> The system is chain.
lattice vectors (bohr)
A  = 11.338355931474,  0.000000000000,  0.000000000000
B  =  0.000000000000, 28.345889828684,  0.000000000000
C  =  0.000000000000,  0.000000000000, 28.345889828684
reciprocal lattice vectors (bohr^-1)
RA =  0.554153119302,  0.000000000000,  0.000000000000
RB =  0.000000000000,  0.221661247721,  0.000000000000
RC =  0.000000000000,  0.000000000000,  0.221661247721
Grid_Origin -0.944862994289 -13.700513417197 -13.700513417197
Cell_Volume =   9110.249600090603 (Bohr^3)
GridVol     =      0.843541629638 (Bohr^3)
Grid_Origin -0.944862994289 -13.700513417197 -13.700513417197
Cell_Volume =   9110.249600090603 (Bohr^3)
GridVol     =      0.843541629638 (Bohr^3)
<UCell_Box> Info. of cutoff energy and num. of grids
lattice vectors (bohr)
A  = 11.338355931474,  0.000000000000,  0.000000000000
B  =  0.000000000000, 28.345889828684,  0.000000000000
C  =  0.000000000000,  0.000000000000, 28.345889828684
reciprocal lattice vectors (bohr^-1)
RA =  0.554153119302,  0.000000000000,  0.000000000000
RB =  0.000000000000,  0.221661247721,  0.000000000000
RC =  0.000000000000,  0.000000000000,  0.221661247721
Required cutoff energy (Ryd) for 3D-grids = 11.0248
    Used cutoff energy (Ryd) for 3D-grids = 11.0551, 11.0551, 11.0551
Num. of grids of a-, b-, and c-axes = 12, 30, 30
Grid_Origin -0.944862994289 -13.700513417197 -13.700513417197
Cell_Volume =   9110.249600090603 (Bohr^3)
GridVol     =      0.843541629638 (Bohr^3)
Cell vectors (bohr) of the grid cell (gtv)
  gtv_a =  0.944862994289,  0.000000000000,  0.000000000000
  gtv_b =  0.000000000000,  0.944862994289,  0.000000000000
  gtv_c =  0.000000000000,  0.000000000000,  0.944862994289
  |gtv_a| =  0.944862994289
  |gtv_b| =  0.944862994289
  |gtv_c| =  0.944862994289
Num. of grids overlapping with atom    1 = 1056
Num. of grids overlapping with atom    2 = 1056
Num. of grids overlapping with atom    3 = 1056
Num. of grids overlapping with atom    4 = 1056
<QDFT> Parameters
N = 4	M = 2	Nl = 3

*******************************************************
             SCF calculation at MD = 1                
*******************************************************

<MD= 1>  Calculation of the overlap matrix
<MD= 1>  Calculation of the nonlocal matrix
<MD= 1>  Calculation of the VNA projector matrix

******************* MD= 1  SCF= 1 *******************
<VQE>  Solving the eigenvalue problem...
vqe time elapsed: 0m 9s

    1    H  MulP   0.5001  0.5001 sum   1.0002
    2    H  MulP   0.5000  0.5000 sum   1.0000
    3    H  MulP   0.4999  0.4999 sum   0.9998
    4    H  MulP   0.5000  0.5000 sum   1.0000
 Sum of MulP: up   =     2.00000 down          =     2.00000
              total=     4.00000 ideal(neutral)=     4.00000
<DFT>  Total Spin Moment (muB) =  0.000000000000
<DFT>  Mixing_weight= 0.300000000000
<DFT>  Uele   =   -1.186809795134  dUele     =   1.000000000000
<DFT>  NormRD =    1.000000000000  Criterion =   0.000000036749

******************* MD= 1  SCF= 2 *******************
<Poisson>  Poisson's equation using FFT...
<Set_Hamiltonian>  Hamiltonian matrix for VNA+dVH+Vxc...
<VQE>  Solving the eigenvalue problem...
vqe time elapsed: 0m 1s

    1    H  MulP   0.5001  0.5001 sum   1.0002
    2    H  MulP   0.4999  0.4999 sum   0.9999
    3    H  MulP   0.5001  0.5001 sum   1.0001
    4    H  MulP   0.4999  0.4999 sum   0.9998
 Sum of MulP: up   =     2.00000 down          =     2.00000
              total=     4.00000 ideal(neutral)=     4.00000
<DFT>  Total Spin Moment (muB) =  0.000000000000
<DFT>  Mixing_weight= 0.300020659901
<DFT>  Uele   =   -1.178033015324  dUele     =   0.008776779810
<DFT>  NormRD =    0.008298288738  Criterion =   0.000000036749

******************* MD= 1  SCF= 3 *******************
<Poisson>  Poisson's equation using FFT...
<Set_Hamiltonian>  Hamiltonian matrix for VNA+dVH+Vxc...
<VQE>  Solving the eigenvalue problem...
vqe time elapsed: 0m 0s

    1    H  MulP   0.4993  0.4993 sum   0.9987
    2    H  MulP   0.5007  0.5007 sum   1.0014
    3    H  MulP   0.4993  0.4993 sum   0.9986
    4    H  MulP   0.5007  0.5007 sum   1.0013
 Sum of MulP: up   =     2.00000 down          =     2.00000
              total=     4.00000 ideal(neutral)=     4.00000
<DFT>  Total Spin Moment (muB) =  0.000000000000
<DFT>  Mixing_weight= 0.400000000000
<DFT>  Uele   =   -1.169842189657  dUele     =   0.008190825667
<DFT>  NormRD =    0.005808587570  Criterion =   0.000000036749

******************* MD= 1  SCF= 4 *******************
<Poisson>  Poisson's equation using FFT...
<Set_Hamiltonian>  Hamiltonian matrix for VNA+dVH+Vxc...
<VQE>  Solving the eigenvalue problem...
vqe time elapsed: 0m 2s

    1    H  MulP   0.5164  0.5164 sum   1.0327
    2    H  MulP   0.4835  0.4835 sum   0.9671
    3    H  MulP   0.5164  0.5164 sum   1.0329
    4    H  MulP   0.4836  0.4836 sum   0.9673
 Sum of MulP: up   =     2.00000 down          =     2.00000
              total=     4.00000 ideal(neutral)=     4.00000
<DFT>  Total Spin Moment (muB) =  0.000000000000
<DFT>  Mixing_weight= 0.001774293191
<DFT>  Uele   =   -1.157575543026  dUele     =   0.012266646631
<DFT>  NormRD =    0.087020684305  Criterion =   0.000000036749

******************* MD= 1  SCF= 5 *******************
<Poisson>  Poisson's equation using FFT...
<Set_Hamiltonian>  Hamiltonian matrix for VNA+dVH+Vxc...
<VQE>  Solving the eigenvalue problem...
vqe time elapsed: 0m 1s

    1    H  MulP   0.4975  0.4975 sum   0.9951
    2    H  MulP   0.5025  0.5025 sum   1.0050
    3    H  MulP   0.4975  0.4975 sum   0.9949
    4    H  MulP   0.5025  0.5025 sum   1.0050
 Sum of MulP: up   =     2.00000 down          =     2.00000
              total=     4.00000 ideal(neutral)=     4.00000
<DFT>  Total Spin Moment (muB) =  0.000000000000
<DFT>  Mixing_weight= 0.001822024751
<DFT>  Uele   =   -1.157556334794  dUele     =   0.000019208231
<DFT>  NormRD =    0.014084718561  Criterion =   0.000000036749

******************* MD= 1  SCF= 6 *******************
<Poisson>  Poisson's equation using FFT...
<Set_Hamiltonian>  Hamiltonian matrix for VNA+dVH+Vxc...
<VQE>  Solving the eigenvalue problem...
vqe time elapsed: 0m 0s

    1    H  MulP   0.4976  0.4976 sum   0.9953
    2    H  MulP   0.5024  0.5024 sum   1.0048
    3    H  MulP   0.4976  0.4976 sum   0.9952
    4    H  MulP   0.5024  0.5024 sum   1.0048
 Sum of MulP: up   =     2.00000 down          =     2.00000
              total=     4.00000 ideal(neutral)=     4.00000
<DFT>  Total Spin Moment (muB) =  0.000000000000
<DFT>  Mixing_weight= 0.001822024751
<DFT>  Uele   =   -1.157556293428  dUele     =   0.000000041366
<DFT>  NormRD =    0.013449771071  Criterion =   0.000000036749

******************* MD= 1  SCF= 7 *******************
<Poisson>  Poisson's equation using FFT...
<Set_Hamiltonian>  Hamiltonian matrix for VNA+dVH+Vxc...
<VQE>  Solving the eigenvalue problem...
vqe time elapsed: 0m 0s

    1    H  MulP   0.4978  0.4978 sum   0.9955
    2    H  MulP   0.5023  0.5023 sum   1.0045
    3    H  MulP   0.4977  0.4977 sum   0.9954
    4    H  MulP   0.5023  0.5023 sum   1.0046
 Sum of MulP: up   =     2.00000 down          =     2.00000
              total=     4.00000 ideal(neutral)=     4.00000
<DFT>  Total Spin Moment (muB) =  0.000000000000
<DFT>  Mixing_weight= 0.001822024751
<DFT>  Uele   =   -1.157556255707  dUele     =   0.000000037721
<DFT>  NormRD =    0.012843473853  Criterion =   0.000000036749

******************* MD= 1  SCF= 8 *******************
<Poisson>  Poisson's equation using FFT...
<Set_Hamiltonian>  Hamiltonian matrix for VNA+dVH+Vxc...
<VQE>  Solving the eigenvalue problem...
vqe time elapsed: 0m 0s

    1    H  MulP   0.5000  0.5000 sum   1.0000
    2    H  MulP   0.5000  0.5000 sum   1.0000
    3    H  MulP   0.4999  0.4999 sum   0.9999
    4    H  MulP   0.5000  0.5000 sum   1.0001
 Sum of MulP: up   =     2.00000 down          =     2.00000
              total=     4.00000 ideal(neutral)=     4.00000
<DFT>  Total Spin Moment (muB) =  0.000000000000
<DFT>  Mixing_weight= 0.001822024751
<DFT>  Uele   =   -1.157555864258  dUele     =   0.000000391449
<DFT>  NormRD =    0.000164564607  Criterion =   0.000000036749

******************* MD= 1  SCF= 9 *******************
<Poisson>  Poisson's equation using FFT...
<Set_Hamiltonian>  Hamiltonian matrix for VNA+dVH+Vxc...
<VQE>  Solving the eigenvalue problem...
vqe time elapsed: 0m 0s

    1    H  MulP   0.5000  0.5000 sum   1.0001
    2    H  MulP   0.5000  0.5000 sum   1.0000
    3    H  MulP   0.5000  0.5000 sum   0.9999
    4    H  MulP   0.5000  0.5000 sum   1.0000
 Sum of MulP: up   =     2.00000 down          =     2.00000
              total=     4.00000 ideal(neutral)=     4.00000
<DFT>  Total Spin Moment (muB) =  0.000000000000
<DFT>  Mixing_weight= 0.001822024751
<DFT>  Uele   =   -1.157555863909  dUele     =   0.000000000349
<DFT>  NormRD =    0.000000205976  Criterion =   0.000000036749
<MD= 1>  Force calculation
  Force calculation #1
  Force calculation #2
  Force calculation #3
  Force calculation #4
  Force calculation #5
<MD= 1>  Total Energy
  Force calculation #6
  Force calculation #7

*******************************************************
                  Dipole moment (Debye)                 
*******************************************************

 Absolute D        0.57271638

                      Dx                Dy                Dz
 Total              0.57271638       -0.00000000       -0.00000000
 Core              43.22886119        0.00000000        0.00000000
 Electron         -42.65614481       -0.00000000       -0.00000000
 Back ground       -0.00000000        0.00000000       -0.00000000

*******************************************************
                Total Energy (Hartree) at MD = 1        
*******************************************************

  Uele  =      -1.157555863909

  Ukin  =       1.737134169352
  UH0   =      -4.040971964118
  UH1   =       0.000325542968
  Una   =      -1.819263549765
  Unl   =       0.245890033445
  Uxc0  =      -0.537424384998
  Uxc1  =      -0.537424384998
  Ucore =       2.939873605556
  Uhub  =       0.000000000000
  Ucs   =       0.000000000000
  Uzs   =       0.000000000000
  Uzo   =       0.000000000000
  Uef   =       0.000000000000
  UvdW  =       0.000000000000
  Uch   =       0.000000000000
  Utot  =      -2.011860932558

  UpV   =       0.000000000000
  Enpy  =      -2.011860932558
  Note:

  Uele:   band energy
  Ukin:   kinetic energy
  UH0:    electric part of screened Coulomb energy
  UH1:    difference electron-electron Coulomb energy
  Una:    neutral atom potential energy
  Unl:    non-local potential energy
  Uxc0:   exchange-correlation energy for alpha spin
  Uxc1:   exchange-correlation energy for beta spin
  Ucore:  core-core Coulomb energy
  Uhub:   LDA+U energy
  Ucs:    constraint energy for spin orientation
  Uzs:    Zeeman term for spin magnetic moment
  Uzo:    Zeeman term for orbital magnetic moment
  Uef:    electric energy by electric field
  UvdW:   semi-empirical vdW energy 
  Uch:    penalty term to create a core hole
  UpV:    pressure times volume
  Enpy:   Enthalpy = Utot + UpV
  (see also PRB 72, 045121(2005) for the energy contributions)


*******************************************************
           Computational times (s) at MD = 1            
*******************************************************

  DFT in total      =   27.20703

  Set_OLP_Kin       =    0.07659
  Set_Nonlocal      =    0.08021
  Set_ProExpn_VNA   =    0.17695
  Set_Hamiltonian   =    0.00506
  Poisson           =    0.00690
  diagonalization   =   20.32107
  Mixing_DM         =    0.00013
  Force             =    0.00805
  Total_Energy      =    0.60006
  Set_Aden_Grid     =    0.00113
  Set_Orbitals_Grid =    0.00100
  Set_Density_Grid  =    0.00311
  RestartFileDFT    =    0.32530
  Mulliken_Charge   =    0.05071
  FFT(2D)_Density   =    0.00000

The SCF was achieved at MD=   1

*******************************************************
             MD or geometry opt. at MD = 1              
*******************************************************


outputting data on grids to files...


***********************************************************
***********************************************************
               Computational Time (second)                 
***********************************************************
***********************************************************

                               Min_ID   Min_Time       Max_ID   Max_Time
   Total Computational Time =     0       31.090          0       31.090
   readfile                 =     0        2.397          0        2.397
   truncation               =     0        0.066          0        0.066
   MD_pac                   =     0        0.106          0        0.106
   OutData                  =     0        0.804          0        0.804
   DFT                      =     0       27.207          0       27.207

*** In DFT ***

   Set_OLP_Kin              =     0        0.077          0        0.077
   Set_Nonlocal             =     0        0.080          0        0.080
   Set_ProExpn_VNA          =     0        0.177          0        0.177
   Set_Hamiltonian          =     0        0.005          0        0.005
   Poisson                  =     0        0.007          0        0.007
   Diagonalization          =     0       20.321          0       20.321
   Mixing_DM                =     0        0.000          0        0.000
   Force                    =     0        0.008          0        0.008
   Total_Energy             =     0        0.600          0        0.600
   Set_Aden_Grid            =     0        0.001          0        0.001
   Set_Orbitals_Grid        =     0        0.001          0        0.001
   Set_Density_Grid         =     0        0.003          0        0.003
   RestartFileDFT           =     0        0.325          0        0.325
   Mulliken_Charge          =     0        0.051          0        0.051
   FFT(2D)_Density          =     0        0.000          0        0.000
   Others                   =     0        5.551          0        5.551

The calculation was normally finished.
<DFT> Parameters
method = openmx-vqe
N = 4  R = 1.5  np = 1
dir_output = /home/yerin/qdft/hchain/output/N4/openmx-vqe_R1.50

run_openmx Done: 0m 32s


The number of threads in each node for OpenMP parallelization is 1.


*******************************************************
*******************************************************
 Welcome to OpenMX   Ver. 3.9.9                           
 Copyright (C), 2002-2019, T. Ozaki                    
 OpenMX comes with ABSOLUTELY NO WARRANTY.             
 This is free software, and you are welcome to         
 redistribute it under the constitution of the GNU-GPL.
*******************************************************
*******************************************************



<Input_std>  Your input file was normally read.
<Input_std>  The system includes 1 species and 4 atoms.

*******************************************************
                     PAO and VPS                       
*******************************************************

<SetPara_DFT>  PAOs of species H were normally found.
<SetPara_DFT>  VPSs of species H were normally found.
               H_CA19.vps is j-dependent.
               In case of scf.SpinOrbit.Coupling=off,
               j-dependent pseudo potentials are averaged by j-degeneracy,
               which corresponds to a scalar relativistic treatment.

*******************************************************
     Fourier transform of PAO and projectors of VNL    
*******************************************************

<FT_PAO>          Fourier transform of pseudo atomic orbitals
<FT_NLP>          Fourier transform of non-local projectors
<FT_ProExpn_VNA>  Fourier transform of VNA separable projectors
<FT_VNA>          Fourier transform of VNA potentials
<FT_ProductPAO>   Fourier transform of product of PAOs

*******************************************************
  Allocation of atoms to processors at MD_iter=    1     
*******************************************************

 proc =   0  # of atoms=   4  estimated weight=         4.00000




*******************************************************
        Analysis of neighbors and setting of grids        
*******************************************************

TFNAN=      24   Average FNAN=   6.00000
TSNAN=       0   Average SNAN=   0.00000
<truncation> CpyCell= 1 ct_AN=   1 FNAN SNAN   6   0
<truncation> CpyCell= 1 ct_AN=   2 FNAN SNAN   6   0
<truncation> CpyCell= 1 ct_AN=   3 FNAN SNAN   6   0
<truncation> CpyCell= 1 ct_AN=   4 FNAN SNAN   6   0
TFNAN=      24   Average FNAN=   6.00000
TSNAN=       0   Average SNAN=   0.00000
<truncation> CpyCell= 2 ct_AN=   1 FNAN SNAN   6   0
<truncation> CpyCell= 2 ct_AN=   2 FNAN SNAN   6   0
<truncation> CpyCell= 2 ct_AN=   3 FNAN SNAN   6   0
<truncation> CpyCell= 2 ct_AN=   4 FNAN SNAN   6   0
TFNAN=      24   Average FNAN=   6.00000
TSNAN=       0   Average SNAN=   0.00000
<truncation> CpyCell= 2 ct_AN=   1 FNAN SNAN   6   0
<truncation> CpyCell= 2 ct_AN=   2 FNAN SNAN   6   0
<truncation> CpyCell= 2 ct_AN=   3 FNAN SNAN   6   0
<truncation> CpyCell= 2 ct_AN=   4 FNAN SNAN   6   0
<Check_System> The system is chain.
lattice vectors (bohr)
A  = 15.117807908631,  0.000000000000,  0.000000000000
B  =  0.000000000000, 28.345889828684,  0.000000000000
C  =  0.000000000000,  0.000000000000, 28.345889828684
reciprocal lattice vectors (bohr^-1)
RA =  0.415614839476,  0.000000000000,  0.000000000000
RB =  0.000000000000,  0.221661247721,  0.000000000000
RC =  0.000000000000,  0.000000000000,  0.221661247721
Grid_Origin -1.417294491434 -13.700513417197 -13.700513417197
Cell_Volume =  12146.999466787469 (Bohr^3)
GridVol     =      0.843541629638 (Bohr^3)
Grid_Origin -1.417294491434 -13.700513417197 -13.700513417197
Cell_Volume =  12146.999466787469 (Bohr^3)
GridVol     =      0.843541629638 (Bohr^3)
<UCell_Box> Info. of cutoff energy and num. of grids
lattice vectors (bohr)
A  = 15.117807908631,  0.000000000000,  0.000000000000
B  =  0.000000000000, 28.345889828684,  0.000000000000
C  =  0.000000000000,  0.000000000000, 28.345889828684
reciprocal lattice vectors (bohr^-1)
RA =  0.415614839476,  0.000000000000,  0.000000000000
RB =  0.000000000000,  0.221661247721,  0.000000000000
RC =  0.000000000000,  0.000000000000,  0.221661247721
Required cutoff energy (Ryd) for 3D-grids = 11.0248
    Used cutoff energy (Ryd) for 3D-grids = 11.0551, 11.0551, 11.0551
Num. of grids of a-, b-, and c-axes = 16, 30, 30
Grid_Origin -1.417294491434 -13.700513417197 -13.700513417197
Cell_Volume =  12146.999466787469 (Bohr^3)
GridVol     =      0.843541629638 (Bohr^3)
Cell vectors (bohr) of the grid cell (gtv)
  gtv_a =  0.944862994289,  0.000000000000,  0.000000000000
  gtv_b =  0.000000000000,  0.944862994289,  0.000000000000
  gtv_c =  0.000000000000,  0.000000000000,  0.944862994289
  |gtv_a| =  0.944862994289
  |gtv_b| =  0.944862994289
  |gtv_c| =  0.944862994289
Num. of grids overlapping with atom    1 = 1064
Num. of grids overlapping with atom    2 = 1064
Num. of grids overlapping with atom    3 = 1064
Num. of grids overlapping with atom    4 = 1064
<QDFT> Parameters
N = 4	M = 2	Nl = 3

*******************************************************
             SCF calculation at MD = 1                
*******************************************************

<MD= 1>  Calculation of the overlap matrix
<MD= 1>  Calculation of the nonlocal matrix
<MD= 1>  Calculation of the VNA projector matrix

******************* MD= 1  SCF= 1 *******************
<VQE>  Solving the eigenvalue problem...
vqe time elapsed: 0m 8s

    1    H  MulP   0.5000  0.5000 sum   1.0000
    2    H  MulP   0.5000  0.5000 sum   1.0000
    3    H  MulP   0.5000  0.5000 sum   1.0000
    4    H  MulP   0.5000  0.5000 sum   1.0000
 Sum of MulP: up   =     2.00000 down          =     2.00000
              total=     4.00000 ideal(neutral)=     4.00000
<DFT>  Total Spin Moment (muB) =  0.000000000000
<DFT>  Mixing_weight= 0.300000000000
<DFT>  Uele   =   -0.988903295278  dUele     =   1.000000000000
<DFT>  NormRD =    1.000000000000  Criterion =   0.000000036749

******************* MD= 1  SCF= 2 *******************
<Poisson>  Poisson's equation using FFT...
<Set_Hamiltonian>  Hamiltonian matrix for VNA+dVH+Vxc...
<VQE>  Solving the eigenvalue problem...
vqe time elapsed: 0m 0s

    1    H  MulP   0.5000  0.5000 sum   1.0000
    2    H  MulP   0.5000  0.5000 sum   1.0000
    3    H  MulP   0.5000  0.5000 sum   1.0000
    4    H  MulP   0.5000  0.5000 sum   1.0000
 Sum of MulP: up   =     2.00000 down          =     2.00000
              total=     4.00000 ideal(neutral)=     4.00000
<DFT>  Total Spin Moment (muB) =  0.000000000000
<DFT>  Mixing_weight= 0.300004394084
<DFT>  Uele   =   -0.984562052787  dUele     =   0.004341242491
<DFT>  NormRD =    0.003827104795  Criterion =   0.000000036749

******************* MD= 1  SCF= 3 *******************
<Poisson>  Poisson's equation using FFT...
<Set_Hamiltonian>  Hamiltonian matrix for VNA+dVH+Vxc...
<VQE>  Solving the eigenvalue problem...
vqe time elapsed: 0m 0s

    1    H  MulP   0.4998  0.4998 sum   0.9996
    2    H  MulP   0.5002  0.5002 sum   1.0004
    3    H  MulP   0.4998  0.4998 sum   0.9996
    4    H  MulP   0.5002  0.5002 sum   1.0004
 Sum of MulP: up   =     2.00000 down          =     2.00000
              total=     4.00000 ideal(neutral)=     4.00000
<DFT>  Total Spin Moment (muB) =  0.000000000000
<DFT>  Mixing_weight= 0.400000000000
<DFT>  Uele   =   -0.980510313802  dUele     =   0.004051738985
<DFT>  NormRD =    0.002678960022  Criterion =   0.000000036749

******************* MD= 1  SCF= 4 *******************
<Poisson>  Poisson's equation using FFT...
<Set_Hamiltonian>  Hamiltonian matrix for VNA+dVH+Vxc...
<VQE>  Solving the eigenvalue problem...
vqe time elapsed: 0m 1s

    1    H  MulP   0.5075  0.5075 sum   1.0150
    2    H  MulP   0.4925  0.4925 sum   0.9851
    3    H  MulP   0.5074  0.5074 sum   1.0148
    4    H  MulP   0.4925  0.4925 sum   0.9851
 Sum of MulP: up   =     2.00000 down          =     2.00000
              total=     4.00000 ideal(neutral)=     4.00000
<DFT>  Total Spin Moment (muB) =  0.000000000000
<DFT>  Mixing_weight= 0.003939174779
<DFT>  Uele   =   -0.974436250236  dUele     =   0.006074063566
<DFT>  NormRD =    0.026862383894  Criterion =   0.000000036749

******************* MD= 1  SCF= 5 *******************
<Poisson>  Poisson's equation using FFT...
<Set_Hamiltonian>  Hamiltonian matrix for VNA+dVH+Vxc...
<VQE>  Solving the eigenvalue problem...
vqe time elapsed: 0m 1s

    1    H  MulP   0.4984  0.4984 sum   0.9968
    2    H  MulP   0.5016  0.5016 sum   1.0032
    3    H  MulP   0.4984  0.4984 sum   0.9968
    4    H  MulP   0.5016  0.5016 sum   1.0032
 Sum of MulP: up   =     2.00000 down          =     2.00000
              total=     4.00000 ideal(neutral)=     4.00000
<DFT>  Total Spin Moment (muB) =  0.000000000000
<DFT>  Mixing_weight= 0.004148980112
<DFT>  Uele   =   -0.974432864732  dUele     =   0.000003385504
<DFT>  NormRD =    0.006040628630  Criterion =   0.000000036749

******************* MD= 1  SCF= 6 *******************
<Poisson>  Poisson's equation using FFT...
<Set_Hamiltonian>  Hamiltonian matrix for VNA+dVH+Vxc...
<VQE>  Solving the eigenvalue problem...
vqe time elapsed: 0m 0s

    1    H  MulP   0.4986  0.4986 sum   0.9973
    2    H  MulP   0.5014  0.5014 sum   1.0027
    3    H  MulP   0.4987  0.4987 sum   0.9973
    4    H  MulP   0.5013  0.5013 sum   1.0027
 Sum of MulP: up   =     2.00000 down          =     2.00000
              total=     4.00000 ideal(neutral)=     4.00000
<DFT>  Total Spin Moment (muB) =  0.000000000000
<DFT>  Mixing_weight= 0.004148980112
<DFT>  Uele   =   -0.974432816864  dUele     =   0.000000047867
<DFT>  NormRD =    0.005097914771  Criterion =   0.000000036749

******************* MD= 1  SCF= 7 *******************
<Poisson>  Poisson's equation using FFT...
<Set_Hamiltonian>  Hamiltonian matrix for VNA+dVH+Vxc...
<VQE>  Solving the eigenvalue problem...
vqe time elapsed: 0m 0s

    1    H  MulP   0.4988  0.4988 sum   0.9977
    2    H  MulP   0.5012  0.5012 sum   1.0023
    3    H  MulP   0.4989  0.4989 sum   0.9978
    4    H  MulP   0.5011  0.5011 sum   1.0022
 Sum of MulP: up   =     2.00000 down          =     2.00000
              total=     4.00000 ideal(neutral)=     4.00000
<DFT>  Total Spin Moment (muB) =  0.000000000000
<DFT>  Mixing_weight= 0.004148980112
<DFT>  Uele   =   -0.974432782761  dUele     =   0.000000034104
<DFT>  NormRD =    0.004302191049  Criterion =   0.000000036749

******************* MD= 1  SCF= 8 *******************
<Poisson>  Poisson's equation using FFT...
<Set_Hamiltonian>  Hamiltonian matrix for VNA+dVH+Vxc...
<VQE>  Solving the eigenvalue problem...
vqe time elapsed: 0m 0s

    1    H  MulP   0.5001  0.5001 sum   1.0001
    2    H  MulP   0.4999  0.4999 sum   0.9999
    3    H  MulP   0.5001  0.5001 sum   1.0002
    4    H  MulP   0.4999  0.4999 sum   0.9998
 Sum of MulP: up   =     2.00000 down          =     2.00000
              total=     4.00000 ideal(neutral)=     4.00000
<DFT>  Total Spin Moment (muB) =  0.000000000000
<DFT>  Mixing_weight= 0.004148980112
<DFT>  Uele   =   -0.974432696285  dUele     =   0.000000086476
<DFT>  NormRD =    0.000279790839  Criterion =   0.000000036749

******************* MD= 1  SCF= 9 *******************
<Poisson>  Poisson's equation using FFT...
<Set_Hamiltonian>  Hamiltonian matrix for VNA+dVH+Vxc...
<VQE>  Solving the eigenvalue problem...
vqe time elapsed: 0m 0s

    1    H  MulP   0.5000  0.5000 sum   1.0000
    2    H  MulP   0.5000  0.5000 sum   1.0000
    3    H  MulP   0.5000  0.5000 sum   1.0000
    4    H  MulP   0.5000  0.5000 sum   1.0000
 Sum of MulP: up   =     2.00000 down          =     2.00000
              total=     4.00000 ideal(neutral)=     4.00000
<DFT>  Total Spin Moment (muB) =  0.000000000000
<DFT>  Mixing_weight= 0.004148980112
<DFT>  Uele   =   -0.974432695916  dUele     =   0.000000000368
<DFT>  NormRD =    0.000000007381  Criterion =   0.000000036749
<MD= 1>  Force calculation
  Force calculation #1
  Force calculation #2
  Force calculation #3
  Force calculation #4
  Force calculation #5
<MD= 1>  Total Energy
  Force calculation #6
  Force calculation #7

*******************************************************
                  Dipole moment (Debye)                 
*******************************************************

 Absolute D        1.35792749

                      Dx                Dy                Dz
 Total              1.35792749       -0.00000000       -0.00000000
 Core              57.63848158        0.00000000        0.00000000
 Electron         -56.28055409       -0.00000000       -0.00000000
 Back ground       -0.00000000        0.00000000       -0.00000000

*******************************************************
                Total Energy (Hartree) at MD = 1        
*******************************************************

  Uele  =      -0.974432695916

  Ukin  =       1.715948693838
  UH0   =      -3.110469013815
  UH1   =       0.000225679049
  Una   =      -1.702639454812
  Unl   =       0.239628513090
  Uxc0  =      -0.507235178468
  Uxc1  =      -0.507235178468
  Ucore =       1.940316579667
  Uhub  =       0.000000000000
  Ucs   =       0.000000000000
  Uzs   =       0.000000000000
  Uzo   =       0.000000000000
  Uef   =       0.000000000000
  UvdW  =       0.000000000000
  Uch   =       0.000000000000
  Utot  =      -1.931459359918

  UpV   =       0.000000000000
  Enpy  =      -1.931459359918
  Note:

  Uele:   band energy
  Ukin:   kinetic energy
  UH0:    electric part of screened Coulomb energy
  UH1:    difference electron-electron Coulomb energy
  Una:    neutral atom potential energy
  Unl:    non-local potential energy
  Uxc0:   exchange-correlation energy for alpha spin
  Uxc1:   exchange-correlation energy for beta spin
  Ucore:  core-core Coulomb energy
  Uhub:   LDA+U energy
  Ucs:    constraint energy for spin orientation
  Uzs:    Zeeman term for spin magnetic moment
  Uzo:    Zeeman term for orbital magnetic moment
  Uef:    electric energy by electric field
  UvdW:   semi-empirical vdW energy 
  Uch:    penalty term to create a core hole
  UpV:    pressure times volume
  Enpy:   Enthalpy = Utot + UpV
  (see also PRB 72, 045121(2005) for the energy contributions)


*******************************************************
           Computational times (s) at MD = 1            
*******************************************************

  DFT in total      =   24.28368

  Set_OLP_Kin       =    0.06976
  Set_Nonlocal      =    0.06284
  Set_ProExpn_VNA   =    0.16102
  Set_Hamiltonian   =    0.00573
  Poisson           =    0.00880
  diagonalization   =   17.43395
  Mixing_DM         =    0.00013
  Force             =    0.00556
  Total_Energy      =    0.48456
  Set_Aden_Grid     =    0.00131
  Set_Orbitals_Grid =    0.00101
  Set_Density_Grid  =    0.00303
  RestartFileDFT    =    0.32759
  Mulliken_Charge   =    0.02564
  FFT(2D)_Density   =    0.00000

The SCF was achieved at MD=   1

*******************************************************
             MD or geometry opt. at MD = 1              
*******************************************************


outputting data on grids to files...


***********************************************************
***********************************************************
               Computational Time (second)                 
***********************************************************
***********************************************************

                               Min_ID   Min_Time       Max_ID   Max_Time
   Total Computational Time =     0       28.134          0       28.134
   readfile                 =     0        2.398          0        2.398
   truncation               =     0        0.092          0        0.092
   MD_pac                   =     0        0.111          0        0.111
   OutData                  =     0        0.777          0        0.777
   DFT                      =     0       24.284          0       24.284

*** In DFT ***

   Set_OLP_Kin              =     0        0.070          0        0.070
   Set_Nonlocal             =     0        0.063          0        0.063
   Set_ProExpn_VNA          =     0        0.161          0        0.161
   Set_Hamiltonian          =     0        0.006          0        0.006
   Poisson                  =     0        0.009          0        0.009
   Diagonalization          =     0       17.434          0       17.434
   Mixing_DM                =     0        0.000          0        0.000
   Force                    =     0        0.006          0        0.006
   Total_Energy             =     0        0.485          0        0.485
   Set_Aden_Grid            =     0        0.001          0        0.001
   Set_Orbitals_Grid        =     0        0.001          0        0.001
   Set_Density_Grid         =     0        0.003          0        0.003
   RestartFileDFT           =     0        0.328          0        0.328
   Mulliken_Charge          =     0        0.026          0        0.026
   FFT(2D)_Density          =     0        0.000          0        0.000
   Others                   =     0        5.693          0        5.693

The calculation was normally finished.
<DFT> Parameters
method = openmx-vqe
N = 4  R = 2.0  np = 1
dir_output = /home/yerin/qdft/hchain/output/N4/openmx-vqe_R2.00

run_openmx Done: 0m 29s


The number of threads in each node for OpenMP parallelization is 1.


*******************************************************
*******************************************************
 Welcome to OpenMX   Ver. 3.9.9                           
 Copyright (C), 2002-2019, T. Ozaki                    
 OpenMX comes with ABSOLUTELY NO WARRANTY.             
 This is free software, and you are welcome to         
 redistribute it under the constitution of the GNU-GPL.
*******************************************************
*******************************************************



<Input_std>  Your input file was normally read.
<Input_std>  The system includes 1 species and 4 atoms.

*******************************************************
                     PAO and VPS                       
*******************************************************

<SetPara_DFT>  PAOs of species H were normally found.
<SetPara_DFT>  VPSs of species H were normally found.
               H_CA19.vps is j-dependent.
               In case of scf.SpinOrbit.Coupling=off,
               j-dependent pseudo potentials are averaged by j-degeneracy,
               which corresponds to a scalar relativistic treatment.

*******************************************************
     Fourier transform of PAO and projectors of VNL    
*******************************************************

<FT_PAO>          Fourier transform of pseudo atomic orbitals
<FT_NLP>          Fourier transform of non-local projectors
<FT_ProExpn_VNA>  Fourier transform of VNA separable projectors
<FT_VNA>          Fourier transform of VNA potentials
<FT_ProductPAO>   Fourier transform of product of PAOs

*******************************************************
  Allocation of atoms to processors at MD_iter=    1     
*******************************************************

 proc =   0  # of atoms=   4  estimated weight=         4.00000




*******************************************************
        Analysis of neighbors and setting of grids        
*******************************************************

TFNAN=      16   Average FNAN=   4.00000
TSNAN=       0   Average SNAN=   0.00000
<truncation> CpyCell= 1 ct_AN=   1 FNAN SNAN   4   0
<truncation> CpyCell= 1 ct_AN=   2 FNAN SNAN   4   0
<truncation> CpyCell= 1 ct_AN=   3 FNAN SNAN   4   0
<truncation> CpyCell= 1 ct_AN=   4 FNAN SNAN   4   0
TFNAN=      16   Average FNAN=   4.00000
TSNAN=       0   Average SNAN=   0.00000
<truncation> CpyCell= 2 ct_AN=   1 FNAN SNAN   4   0
<truncation> CpyCell= 2 ct_AN=   2 FNAN SNAN   4   0
<truncation> CpyCell= 2 ct_AN=   3 FNAN SNAN   4   0
<truncation> CpyCell= 2 ct_AN=   4 FNAN SNAN   4   0
TFNAN=      16   Average FNAN=   4.00000
TSNAN=       0   Average SNAN=   0.00000
<truncation> CpyCell= 2 ct_AN=   1 FNAN SNAN   4   0
<truncation> CpyCell= 2 ct_AN=   2 FNAN SNAN   4   0
<truncation> CpyCell= 2 ct_AN=   3 FNAN SNAN   4   0
<truncation> CpyCell= 2 ct_AN=   4 FNAN SNAN   4   0
<Check_System> The system is chain.
lattice vectors (bohr)
A  = 18.897259885789,  0.000000000000,  0.000000000000
B  =  0.000000000000, 28.345889828684,  0.000000000000
C  =  0.000000000000,  0.000000000000, 28.345889828684
reciprocal lattice vectors (bohr^-1)
RA =  0.332491871581,  0.000000000000,  0.000000000000
RB =  0.000000000000,  0.221661247721,  0.000000000000
RC =  0.000000000000,  0.000000000000,  0.221661247721
Grid_Origin -1.889725988579 -13.700513417197 -13.700513417197
Cell_Volume =  15183.749333484337 (Bohr^3)
GridVol     =      0.843541629638 (Bohr^3)
Grid_Origin -1.889725988579 -13.700513417197 -13.700513417197
Cell_Volume =  15183.749333484337 (Bohr^3)
GridVol     =      0.843541629638 (Bohr^3)
<UCell_Box> Info. of cutoff energy and num. of grids
lattice vectors (bohr)
A  = 18.897259885789,  0.000000000000,  0.000000000000
B  =  0.000000000000, 28.345889828684,  0.000000000000
C  =  0.000000000000,  0.000000000000, 28.345889828684
reciprocal lattice vectors (bohr^-1)
RA =  0.332491871581,  0.000000000000,  0.000000000000
RB =  0.000000000000,  0.221661247721,  0.000000000000
RC =  0.000000000000,  0.000000000000,  0.221661247721
Required cutoff energy (Ryd) for 3D-grids = 11.0248
    Used cutoff energy (Ryd) for 3D-grids = 11.0551, 11.0551, 11.0551
Num. of grids of a-, b-, and c-axes = 20, 30, 30
Grid_Origin -1.889725988579 -13.700513417197 -13.700513417197
Cell_Volume =  15183.749333484337 (Bohr^3)
GridVol     =      0.843541629638 (Bohr^3)
Cell vectors (bohr) of the grid cell (gtv)
  gtv_a =  0.944862994289,  0.000000000000,  0.000000000000
  gtv_b =  0.000000000000,  0.944862994289,  0.000000000000
  gtv_c =  0.000000000000,  0.000000000000,  0.944862994289
  |gtv_a| =  0.944862994289
  |gtv_b| =  0.944862994289
  |gtv_c| =  0.944862994289
Num. of grids overlapping with atom    1 = 1056
Num. of grids overlapping with atom    2 = 1056
Num. of grids overlapping with atom    3 = 1056
Num. of grids overlapping with atom    4 = 1056
<QDFT> Parameters
N = 4	M = 2	Nl = 3

*******************************************************
             SCF calculation at MD = 1                
*******************************************************

<MD= 1>  Calculation of the overlap matrix
<MD= 1>  Calculation of the nonlocal matrix
<MD= 1>  Calculation of the VNA projector matrix

******************* MD= 1  SCF= 1 *******************
<VQE>  Solving the eigenvalue problem...
vqe time elapsed: 0m 6s

    1    H  MulP   0.5001  0.5001 sum   1.0002
    2    H  MulP   0.4996  0.4996 sum   0.9993
    3    H  MulP   0.5000  0.5000 sum   0.9999
    4    H  MulP   0.5003  0.5003 sum   1.0005
 Sum of MulP: up   =     2.00000 down          =     2.00000
              total=     4.00000 ideal(neutral)=     4.00000
<DFT>  Total Spin Moment (muB) =  0.000000000000
<DFT>  Mixing_weight= 0.300000000000
<DFT>  Uele   =   -0.925162136094  dUele     =   1.000000000000
<DFT>  NormRD =    1.000000000000  Criterion =   0.000000036749

******************* MD= 1  SCF= 2 *******************
<Poisson>  Poisson's equation using FFT...
<Set_Hamiltonian>  Hamiltonian matrix for VNA+dVH+Vxc...
<VQE>  Solving the eigenvalue problem...
vqe time elapsed: 0m 1s

    1    H  MulP   0.4994  0.4994 sum   0.9988
    2    H  MulP   0.5009  0.5009 sum   1.0019
    3    H  MulP   0.4993  0.4993 sum   0.9986
    4    H  MulP   0.5004  0.5004 sum   1.0007
 Sum of MulP: up   =     2.00000 down          =     2.00000
              total=     4.00000 ideal(neutral)=     4.00000
<DFT>  Total Spin Moment (muB) =  0.000000000000
<DFT>  Mixing_weight= 0.300003663384
<DFT>  Uele   =   -0.921149533842  dUele     =   0.004012602252
<DFT>  NormRD =    0.003494442905  Criterion =   0.000000036749

******************* MD= 1  SCF= 3 *******************
<Poisson>  Poisson's equation using FFT...
<Set_Hamiltonian>  Hamiltonian matrix for VNA+dVH+Vxc...
<VQE>  Solving the eigenvalue problem...
vqe time elapsed: 0m 1s

    1    H  MulP   0.5128  0.5128 sum   1.0257
    2    H  MulP   0.4871  0.4871 sum   0.9742
    3    H  MulP   0.5128  0.5128 sum   1.0256
    4    H  MulP   0.4873  0.4873 sum   0.9746
 Sum of MulP: up   =     2.00000 down          =     2.00000
              total=     4.00000 ideal(neutral)=     4.00000
<DFT>  Total Spin Moment (muB) =  0.000000000000
<DFT>  Mixing_weight= 0.400000000000
<DFT>  Uele   =   -0.917415207021  dUele     =   0.003734326821
<DFT>  NormRD =    0.002467057805  Criterion =   0.000000036749

******************* MD= 1  SCF= 4 *******************
<Poisson>  Poisson's equation using FFT...
<Set_Hamiltonian>  Hamiltonian matrix for VNA+dVH+Vxc...
<VQE>  Solving the eigenvalue problem...
vqe time elapsed: 0m 7s

    1    H  MulP   0.2249  0.2249 sum   0.4498
    2    H  MulP   0.7755  0.7755 sum   1.5510
    3    H  MulP   0.2251  0.2251 sum   0.4503
    4    H  MulP   0.7745  0.7745 sum   1.5489
 Sum of MulP: up   =     2.00000 down          =     2.00000
              total=     4.00000 ideal(neutral)=     4.00000
<DFT>  Total Spin Moment (muB) =  0.000000000000
<DFT>  Mixing_weight= 0.001000000000
<DFT>  Uele   =   -0.923208000087  dUele     =   0.005792793067
<DFT>  NormRD =    0.833145277373  Criterion =   0.000000036749

******************* MD= 1  SCF= 5 *******************
<Poisson>  Poisson's equation using FFT...
<Set_Hamiltonian>  Hamiltonian matrix for VNA+dVH+Vxc...
<VQE>  Solving the eigenvalue problem...
vqe time elapsed: 0m 4s

    1    H  MulP   0.5525  0.5525 sum   1.1050
    2    H  MulP   0.4452  0.4452 sum   0.8904
    3    H  MulP   0.5535  0.5535 sum   1.1069
    4    H  MulP   0.4489  0.4489 sum   0.8977
 Sum of MulP: up   =     2.00000 down          =     2.00000
              total=     4.00000 ideal(neutral)=     4.00000
<DFT>  Total Spin Moment (muB) =  0.000000000000
<DFT>  Mixing_weight= 0.001047682453
<DFT>  Uele   =   -0.911950986758  dUele     =   0.011257013329
<DFT>  NormRD =    0.177740008733  Criterion =   0.000000036749

******************* MD= 1  SCF= 6 *******************
<Poisson>  Poisson's equation using FFT...
<Set_Hamiltonian>  Hamiltonian matrix for VNA+dVH+Vxc...
<VQE>  Solving the eigenvalue problem...
vqe time elapsed: 0m 0s

    1    H  MulP   0.5494  0.5494 sum   1.0989
    2    H  MulP   0.4482  0.4482 sum   0.8965
    3    H  MulP   0.5504  0.5504 sum   1.1008
    4    H  MulP   0.4519  0.4519 sum   0.9038
 Sum of MulP: up   =     2.00000 down          =     2.00000
              total=     4.00000 ideal(neutral)=     4.00000
<DFT>  Total Spin Moment (muB) =  0.000000000000
<DFT>  Mixing_weight= 0.001047682453
<DFT>  Uele   =   -0.911931733255  dUele     =   0.000019253503
<DFT>  NormRD =    0.166985811695  Criterion =   0.000000036749

******************* MD= 1  SCF= 7 *******************
<Poisson>  Poisson's equation using FFT...
<Set_Hamiltonian>  Hamiltonian matrix for VNA+dVH+Vxc...
<VQE>  Solving the eigenvalue problem...
vqe time elapsed: 0m 1s

    1    H  MulP   0.5464  0.5464 sum   1.0927
    2    H  MulP   0.4513  0.4513 sum   0.9026
    3    H  MulP   0.5473  0.5473 sum   1.0946
    4    H  MulP   0.4550  0.4550 sum   0.9101
 Sum of MulP: up   =     2.00000 down          =     2.00000
              total=     4.00000 ideal(neutral)=     4.00000
<DFT>  Total Spin Moment (muB) =  0.000000000000
<DFT>  Mixing_weight= 0.001047682453
<DFT>  Uele   =   -0.911914693842  dUele     =   0.000017039413
<DFT>  NormRD =    0.157027561079  Criterion =   0.000000036749

******************* MD= 1  SCF= 8 *******************
<Poisson>  Poisson's equation using FFT...
<Set_Hamiltonian>  Hamiltonian matrix for VNA+dVH+Vxc...
<VQE>  Solving the eigenvalue problem...
vqe time elapsed: 0m 4s

    1    H  MulP   0.5648  0.5648 sum   1.1296
    2    H  MulP   0.4453  0.4453 sum   0.8907
    3    H  MulP   0.5627  0.5627 sum   1.1254
    4    H  MulP   0.4271  0.4271 sum   0.8543
 Sum of MulP: up   =     2.00000 down          =     2.00000
              total=     4.00000 ideal(neutral)=     4.00000
<DFT>  Total Spin Moment (muB) =  0.000000000000
<DFT>  Mixing_weight= 0.001047682453
<DFT>  Uele   =   -0.912042166984  dUele     =   0.000127473143
<DFT>  NormRD =    0.210699867833  Criterion =   0.000000036749

******************* MD= 1  SCF= 9 *******************
<Poisson>  Poisson's equation using FFT...
<Set_Hamiltonian>  Hamiltonian matrix for VNA+dVH+Vxc...
<VQE>  Solving the eigenvalue problem...
vqe time elapsed: 0m 4s

    1    H  MulP   0.5602  0.5602 sum   1.1204
    2    H  MulP   0.4381  0.4381 sum   0.8762
    3    H  MulP   0.5612  0.5612 sum   1.1224
    4    H  MulP   0.4405  0.4405 sum   0.8810
 Sum of MulP: up   =     2.00000 down          =     2.00000
              total=     4.00000 ideal(neutral)=     4.00000
<DFT>  Total Spin Moment (muB) =  0.000000000000
<DFT>  Mixing_weight= 0.001047682453
<DFT>  Uele   =   -0.912003882385  dUele     =   0.000038284599
<DFT>  NormRD =    0.199286653612  Criterion =   0.000000036749

******************* MD= 1  SCF=10 *******************
<Poisson>  Poisson's equation using FFT...
<Set_Hamiltonian>  Hamiltonian matrix for VNA+dVH+Vxc...
<VQE>  Solving the eigenvalue problem...
vqe time elapsed: 0m 3s

    1    H  MulP   0.5092  0.5092 sum   1.0184
    2    H  MulP   0.4913  0.4913 sum   0.9826
    3    H  MulP   0.5097  0.5097 sum   1.0193
    4    H  MulP   0.4898  0.4898 sum   0.9796
 Sum of MulP: up   =     2.00000 down          =     2.00000
              total=     4.00000 ideal(neutral)=     4.00000
<DFT>  Total Spin Moment (muB) =  0.000000000000
<DFT>  Mixing_weight= 0.001047682453
<DFT>  Uele   =   -0.911794095375  dUele     =   0.000209787010
<DFT>  NormRD =    0.022811888665  Criterion =   0.000000036749

******************* MD= 1  SCF=11 *******************
<Poisson>  Poisson's equation using FFT...
<Set_Hamiltonian>  Hamiltonian matrix for VNA+dVH+Vxc...
<VQE>  Solving the eigenvalue problem...
vqe time elapsed: 0m 1s

    1    H  MulP   0.5008  0.5008 sum   1.0016
    2    H  MulP   0.4996  0.4996 sum   0.9991
    3    H  MulP   0.5007  0.5007 sum   1.0013
    4    H  MulP   0.4990  0.4990 sum   0.9980
 Sum of MulP: up   =     2.00000 down          =     2.00000
              total=     4.00000 ideal(neutral)=     4.00000
<DFT>  Total Spin Moment (muB) =  0.000000000000
<DFT>  Mixing_weight= 0.001047682453
<DFT>  Uele   =   -0.911788036408  dUele     =   0.000006058967
<DFT>  NormRD =    0.007679686529  Criterion =   0.000000036749

******************* MD= 1  SCF=12 *******************
<Poisson>  Poisson's equation using FFT...
<Set_Hamiltonian>  Hamiltonian matrix for VNA+dVH+Vxc...
<VQE>  Solving the eigenvalue problem...
vqe time elapsed: 0m 2s

    1    H  MulP   0.4962  0.4962 sum   0.9924
    2    H  MulP   0.5026  0.5026 sum   1.0052
    3    H  MulP   0.5000  0.5000 sum   1.0001
    4    H  MulP   0.5012  0.5012 sum   1.0023
 Sum of MulP: up   =     2.00000 down          =     2.00000
              total=     4.00000 ideal(neutral)=     4.00000
<DFT>  Total Spin Moment (muB) =  0.000000000000
<DFT>  Mixing_weight= 0.001047682453
<DFT>  Uele   =   -0.911787356340  dUele     =   0.000000680068
<DFT>  NormRD =    0.006119102190  Criterion =   0.000000036749

******************* MD= 1  SCF=13 *******************
<Poisson>  Poisson's equation using FFT...
<Set_Hamiltonian>  Hamiltonian matrix for VNA+dVH+Vxc...
<VQE>  Solving the eigenvalue problem...
vqe time elapsed: 0m 2s

    1    H  MulP   0.5023  0.5023 sum   1.0047
    2    H  MulP   0.4992  0.4992 sum   0.9984
    3    H  MulP   0.4999  0.4999 sum   0.9998
    4    H  MulP   0.4986  0.4986 sum   0.9971
 Sum of MulP: up   =     2.00000 down          =     2.00000
              total=     4.00000 ideal(neutral)=     4.00000
<DFT>  Total Spin Moment (muB) =  0.000000000000
<DFT>  Mixing_weight= 0.001047682453
<DFT>  Uele   =   -0.911786775689  dUele     =   0.000000580652
<DFT>  NormRD =    0.004616967690  Criterion =   0.000000036749

******************* MD= 1  SCF=14 *******************
<Poisson>  Poisson's equation using FFT...
<Set_Hamiltonian>  Hamiltonian matrix for VNA+dVH+Vxc...
<VQE>  Solving the eigenvalue problem...
vqe time elapsed: 0m 1s

    1    H  MulP   0.5002  0.5002 sum   1.0004
    2    H  MulP   0.5002  0.5002 sum   1.0005
    3    H  MulP   0.4993  0.4993 sum   0.9987
    4    H  MulP   0.5002  0.5002 sum   1.0004
 Sum of MulP: up   =     2.00000 down          =     2.00000
              total=     4.00000 ideal(neutral)=     4.00000
<DFT>  Total Spin Moment (muB) =  0.000000000000
<DFT>  Mixing_weight= 0.001047682453
<DFT>  Uele   =   -0.911786494010  dUele     =   0.000000281679
<DFT>  NormRD =    0.000868821185  Criterion =   0.000000036749

******************* MD= 1  SCF=15 *******************
<Poisson>  Poisson's equation using FFT...
[...]
              total=     4.00000 ideal(neutral)=     4.00000
<DFT>  Total Spin Moment (muB) =  0.000000000000
<DFT>  Mixing_weight= 0.001985810874
<DFT>  Uele   =   -0.821310775641  dUele     =   0.000008344617
<DFT>  NormRD =    0.024783145927  Criterion =   0.000000036749

******************* MD= 1  SCF=75 *******************
<Poisson>  Poisson's equation using FFT...
<Set_Hamiltonian>  Hamiltonian matrix for VNA+dVH+Vxc...
<VQE>  Solving the eigenvalue problem...
vqe time elapsed: 0m 2s

    1    H  MulP   0.4991  0.4991 sum   0.9982
    2    H  MulP   0.4984  0.4984 sum   0.9968
    3    H  MulP   0.5006  0.5006 sum   1.0013
    4    H  MulP   0.5019  0.5019 sum   1.0038
 Sum of MulP: up   =     2.00000 down          =     2.00000
              total=     4.00000 ideal(neutral)=     4.00000
<DFT>  Total Spin Moment (muB) =  0.000000000000
<DFT>  Mixing_weight= 0.001985810874
<DFT>  Uele   =   -0.821308908097  dUele     =   0.000001867545
<DFT>  NormRD =    0.006696940483  Criterion =   0.000000036749

******************* MD= 1  SCF=76 *******************
<Poisson>  Poisson's equation using FFT...
<Set_Hamiltonian>  Hamiltonian matrix for VNA+dVH+Vxc...
<VQE>  Solving the eigenvalue problem...
vqe time elapsed: 0m 1s

    1    H  MulP   0.4833  0.4833 sum   0.9665
    2    H  MulP   0.5139  0.5139 sum   1.0278
    3    H  MulP   0.4842  0.4842 sum   0.9685
    4    H  MulP   0.5186  0.5186 sum   1.0372
 Sum of MulP: up   =     2.00000 down          =     2.00000
              total=     4.00000 ideal(neutral)=     4.00000
<DFT>  Total Spin Moment (muB) =  0.000000000000
<DFT>  Mixing_weight= 0.001985810874
<DFT>  Uele   =   -0.821336142357  dUele     =   0.000027234260
<DFT>  NormRD =    0.053901199688  Criterion =   0.000000036749

******************* MD= 1  SCF=77 *******************
<Poisson>  Poisson's equation using FFT...
<Set_Hamiltonian>  Hamiltonian matrix for VNA+dVH+Vxc...
<VQE>  Solving the eigenvalue problem...
vqe time elapsed: 0m 2s

    1    H  MulP   0.4686  0.4686 sum   0.9372
    2    H  MulP   0.5367  0.5367 sum   1.0734
    3    H  MulP   0.4606  0.4606 sum   0.9212
    4    H  MulP   0.5341  0.5341 sum   1.0682
 Sum of MulP: up   =     2.00000 down          =     2.00000
              total=     4.00000 ideal(neutral)=     4.00000
<DFT>  Total Spin Moment (muB) =  0.000000000000
<DFT>  Mixing_weight= 0.001985810874
<DFT>  Uele   =   -0.821403274194  dUele     =   0.000067131837
<DFT>  NormRD =    0.116645224411  Criterion =   0.000000036749

******************* MD= 1  SCF=78 *******************
<Poisson>  Poisson's equation using FFT...
<Set_Hamiltonian>  Hamiltonian matrix for VNA+dVH+Vxc...
<VQE>  Solving the eigenvalue problem...
vqe time elapsed: 0m 15s

    1    H  MulP   0.4821  0.4821 sum   0.9642
    2    H  MulP   0.5398  0.5398 sum   1.0796
    3    H  MulP   0.4516  0.4516 sum   0.9033
    4    H  MulP   0.5264  0.5264 sum   1.0529
 Sum of MulP: up   =     2.00000 down          =     2.00000
              total=     4.00000 ideal(neutral)=     4.00000
<DFT>  Total Spin Moment (muB) =  0.000000000000
<DFT>  Mixing_weight= 0.001985810874
<DFT>  Uele   =   -0.821411584371  dUele     =   0.000008310178
<DFT>  NormRD =    0.109557217539  Criterion =   0.000000036749

******************* MD= 1  SCF=79 *******************
<Poisson>  Poisson's equation using FFT...
<Set_Hamiltonian>  Hamiltonian matrix for VNA+dVH+Vxc...
<VQE>  Solving the eigenvalue problem...
vqe time elapsed: 0m 3s

    1    H  MulP   0.4969  0.4969 sum   0.9939
    2    H  MulP   0.5035  0.5035 sum   1.0071
    3    H  MulP   0.5011  0.5011 sum   1.0023
    4    H  MulP   0.4984  0.4984 sum   0.9968
 Sum of MulP: up   =     2.00000 down          =     2.00000
              total=     4.00000 ideal(neutral)=     4.00000
<DFT>  Total Spin Moment (muB) =  0.000000000000
<DFT>  Mixing_weight= 0.001985810874
<DFT>  Uele   =   -0.821316450493  dUele     =   0.000095133879
<DFT>  NormRD =    0.007752743839  Criterion =   0.000000036749

******************* MD= 1  SCF=80 *******************
<Poisson>  Poisson's equation using FFT...
<Set_Hamiltonian>  Hamiltonian matrix for VNA+dVH+Vxc...
<VQE>  Solving the eigenvalue problem...
vqe time elapsed: 0m 2s

    1    H  MulP   0.4909  0.4909 sum   0.9819
    2    H  MulP   0.5092  0.5092 sum   1.0184
    3    H  MulP   0.4891  0.4891 sum   0.9781
    4    H  MulP   0.5108  0.5108 sum   1.0216
 Sum of MulP: up   =     2.00000 down          =     2.00000
              total=     4.00000 ideal(neutral)=     4.00000
<DFT>  Total Spin Moment (muB) =  0.000000000000
<DFT>  Mixing_weight= 0.001985810874
<DFT>  Uele   =   -0.821327579089  dUele     =   0.000011128596
<DFT>  NormRD =    0.032015020993  Criterion =   0.000000036749

******************* MD= 1  SCF=81 *******************
<Poisson>  Poisson's equation using FFT...
<Set_Hamiltonian>  Hamiltonian matrix for VNA+dVH+Vxc...
<VQE>  Solving the eigenvalue problem...
vqe time elapsed: 0m 2s

    1    H  MulP   0.5215  0.5215 sum   1.0430
    2    H  MulP   0.4821  0.4821 sum   0.9643
    3    H  MulP   0.5068  0.5068 sum   1.0135
    4    H  MulP   0.4896  0.4896 sum   0.9792
 Sum of MulP: up   =     2.00000 down          =     2.00000
              total=     4.00000 ideal(neutral)=     4.00000
<DFT>  Total Spin Moment (muB) =  0.000000000000
<DFT>  Mixing_weight= 0.001985810874
<DFT>  Uele   =   -0.821340206539  dUele     =   0.000012627450
<DFT>  NormRD =    0.048065555842  Criterion =   0.000000036749

******************* MD= 1  SCF=82 *******************
<Poisson>  Poisson's equation using FFT...
<Set_Hamiltonian>  Hamiltonian matrix for VNA+dVH+Vxc...
<VQE>  Solving the eigenvalue problem...
vqe time elapsed: 0m 2s

    1    H  MulP   0.5066  0.5066 sum   1.0133
    2    H  MulP   0.4922  0.4922 sum   0.9845
    3    H  MulP   0.5079  0.5079 sum   1.0159
    4    H  MulP   0.4932  0.4932 sum   0.9864
 Sum of MulP: up   =     2.00000 down          =     2.00000
              total=     4.00000 ideal(neutral)=     4.00000
<DFT>  Total Spin Moment (muB) =  0.000000000000
<DFT>  Mixing_weight= 0.001985810874
<DFT>  Uele   =   -0.821324681150  dUele     =   0.000015525390
<DFT>  NormRD =    0.023473402351  Criterion =   0.000000036749

******************* MD= 1  SCF=83 *******************
<Poisson>  Poisson's equation using FFT...
<Set_Hamiltonian>  Hamiltonian matrix for VNA+dVH+Vxc...
<VQE>  Solving the eigenvalue problem...
vqe time elapsed: 0m 1s

    1    H  MulP   0.4707  0.4707 sum   0.9413
    2    H  MulP   0.5280  0.5280 sum   1.0560
    3    H  MulP   0.4706  0.4706 sum   0.9412
    4    H  MulP   0.5307  0.5307 sum   1.0615
 Sum of MulP: up   =     2.00000 down          =     2.00000
              total=     4.00000 ideal(neutral)=     4.00000
<DFT>  Total Spin Moment (muB) =  0.000000000000
<DFT>  Mixing_weight= 0.001985810874
<DFT>  Uele   =   -0.821371928466  dUele     =   0.000047247317
<DFT>  NormRD =    0.094493816477  Criterion =   0.000000036749

******************* MD= 1  SCF=84 *******************
<Poisson>  Poisson's equation using FFT...
<Set_Hamiltonian>  Hamiltonian matrix for VNA+dVH+Vxc...
<VQE>  Solving the eigenvalue problem...
vqe time elapsed: 0m 1s

    1    H  MulP   0.4795  0.4795 sum   0.9590
    2    H  MulP   0.5190  0.5190 sum   1.0380
    3    H  MulP   0.4786  0.4786 sum   0.9572
    4    H  MulP   0.5229  0.5229 sum   1.0457
 Sum of MulP: up   =     2.00000 down          =     2.00000
              total=     4.00000 ideal(neutral)=     4.00000
<DFT>  Total Spin Moment (muB) =  0.000000000000
<DFT>  Mixing_weight= 0.001985810874
<DFT>  Uele   =   -0.821343408616  dUele     =   0.000028519850
<DFT>  NormRD =    0.066269608007  Criterion =   0.000000036749

******************* MD= 1  SCF=85 *******************
<Poisson>  Poisson's equation using FFT...
<Set_Hamiltonian>  Hamiltonian matrix for VNA+dVH+Vxc...
<VQE>  Solving the eigenvalue problem...
vqe time elapsed: 0m 4s

    1    H  MulP   0.5086  0.5086 sum   1.0171
    2    H  MulP   0.5128  0.5128 sum   1.0256
    3    H  MulP   0.4939  0.4939 sum   0.9877
    4    H  MulP   0.4848  0.4848 sum   0.9696
 Sum of MulP: up   =     2.00000 down          =     2.00000
              total=     4.00000 ideal(neutral)=     4.00000
<DFT>  Total Spin Moment (muB) =  0.000000000000
<DFT>  Mixing_weight= 0.001985810874
<DFT>  Uele   =   -0.821348199932  dUele     =   0.000004791316
<DFT>  NormRD =    0.024412912455  Criterion =   0.000000036749

******************* MD= 1  SCF=86 *******************
<Poisson>  Poisson's equation using FFT...
<Set_Hamiltonian>  Hamiltonian matrix for VNA+dVH+Vxc...
<VQE>  Solving the eigenvalue problem...
vqe time elapsed: 0m 4s

    1    H  MulP   0.5165  0.5165 sum   1.0330
    2    H  MulP   0.4812  0.4812 sum   0.9623
    3    H  MulP   0.5150  0.5150 sum   1.0300
    4    H  MulP   0.4873  0.4873 sum   0.9747
 Sum of MulP: up   =     2.00000 down          =     2.00000
              total=     4.00000 ideal(neutral)=     4.00000
<DFT>  Total Spin Moment (muB) =  0.000000000000
<DFT>  Mixing_weight= 0.001985810874
<DFT>  Uele   =   -0.821336233258  dUele     =   0.000011966675
<DFT>  NormRD =    0.050687008197  Criterion =   0.000000036749

******************* MD= 1  SCF=87 *******************
<Poisson>  Poisson's equation using FFT...
<Set_Hamiltonian>  Hamiltonian matrix for VNA+dVH+Vxc...
<VQE>  Solving the eigenvalue problem...
vqe time elapsed: 0m 2s

    1    H  MulP   0.4878  0.4878 sum   0.9756
    2    H  MulP   0.5055  0.5055 sum   1.0109
    3    H  MulP   0.5086  0.5086 sum   1.0173
    4    H  MulP   0.4981  0.4981 sum   0.9962
 Sum of MulP: up   =     2.00000 down          =     2.00000
              total=     4.00000 ideal(neutral)=     4.00000
<DFT>  Total Spin Moment (muB) =  0.000000000000
<DFT>  Mixing_weight= 0.001985810874
<DFT>  Uele   =   -0.821335364341  dUele     =   0.000000868917
<DFT>  NormRD =    0.017607990088  Criterion =   0.000000036749

******************* MD= 1  SCF=88 *******************
<Poisson>  Poisson's equation using FFT...
<Set_Hamiltonian>  Hamiltonian matrix for VNA+dVH+Vxc...
<VQE>  Solving the eigenvalue problem...
vqe time elapsed: 0m 2s

    1    H  MulP   0.5014  0.5014 sum   1.0027
    2    H  MulP   0.4984  0.4984 sum   0.9968
    3    H  MulP   0.5013  0.5013 sum   1.0025
    4    H  MulP   0.4990  0.4990 sum   0.9980
 Sum of MulP: up   =     2.00000 down          =     2.00000
              total=     4.00000 ideal(neutral)=     4.00000
<DFT>  Total Spin Moment (muB) =  0.000000000000
<DFT>  Mixing_weight= 0.001985810874
<DFT>  Uele   =   -0.821321832615  dUele     =   0.000013531725
<DFT>  NormRD =    0.004627056271  Criterion =   0.000000036749

******************* MD= 1  SCF=89 *******************
<Poisson>  Poisson's equation using FFT...
<Set_Hamiltonian>  Hamiltonian matrix for VNA+dVH+Vxc...
<VQE>  Solving the eigenvalue problem...
vqe time elapsed: 0m 1s

    1    H  MulP   0.5095  0.5095 sum   1.0190
    2    H  MulP   0.4905  0.4905 sum   0.9810
    3    H  MulP   0.5095  0.5095 sum   1.0189
    4    H  MulP   0.4905  0.4905 sum   0.9811
 Sum of MulP: up   =     2.00000 down          =     2.00000
              total=     4.00000 ideal(neutral)=     4.00000
<DFT>  Total Spin Moment (muB) =  0.000000000000
<DFT>  Mixing_weight= 0.001985810874
<DFT>  Uele   =   -0.821328066483  dUele     =   0.000006233868
<DFT>  NormRD =    0.030677457959  Criterion =   0.000000036749

******************* MD= 1  SCF=90 *******************
<Poisson>  Poisson's equation using FFT...
<Set_Hamiltonian>  Hamiltonian matrix for VNA+dVH+Vxc...
<VQE>  Solving the eigenvalue problem...
vqe time elapsed: 0m 0s

    1    H  MulP   0.5079  0.5079 sum   1.0158
    2    H  MulP   0.4921  0.4921 sum   0.9842
    3    H  MulP   0.5079  0.5079 sum   1.0157
    4    H  MulP   0.4921  0.4921 sum   0.9842
 Sum of MulP: up   =     2.00000 down          =     2.00000
              total=     4.00000 ideal(neutral)=     4.00000
<DFT>  Total Spin Moment (muB) =  0.000000000000
<DFT>  Mixing_weight= 0.001985810874
<DFT>  Uele   =   -0.821326499259  dUele     =   0.000001567225
<DFT>  NormRD =    0.025146176381  Criterion =   0.000000036749

******************* MD= 1  SCF=91 *******************
<Poisson>  Poisson's equation using FFT...
<Set_Hamiltonian>  Hamiltonian matrix for VNA+dVH+Vxc...
<VQE>  Solving the eigenvalue problem...
vqe time elapsed: 0m 1s

    1    H  MulP   0.4997  0.4997 sum   0.9993
    2    H  MulP   0.5003  0.5003 sum   1.0006
    3    H  MulP   0.4995  0.4995 sum   0.9991
    4    H  MulP   0.5005  0.5005 sum   1.0010
 Sum of MulP: up   =     2.00000 down          =     2.00000
              total=     4.00000 ideal(neutral)=     4.00000
<DFT>  Total Spin Moment (muB) =  0.000000000000
<DFT>  Mixing_weight= 0.001985810874
<DFT>  Uele   =   -0.821323091022  dUele     =   0.000003408236
<DFT>  NormRD =    0.001341077084  Criterion =   0.000000036749

******************* MD= 1  SCF=92 *******************
<Poisson>  Poisson's equation using FFT...
<Set_Hamiltonian>  Hamiltonian matrix for VNA+dVH+Vxc...
<VQE>  Solving the eigenvalue problem...
vqe time elapsed: 0m 0s

    1    H  MulP   0.4999  0.4999 sum   0.9998
    2    H  MulP   0.5000  0.5000 sum   1.0001
    3    H  MulP   0.4998  0.4998 sum   0.9996
    4    H  MulP   0.5002  0.5002 sum   1.0005
 Sum of MulP: up   =     2.00000 down          =     2.00000
              total=     4.00000 ideal(neutral)=     4.00000
<DFT>  Total Spin Moment (muB) =  0.000000000000
<DFT>  Mixing_weight= 0.001985810874
<DFT>  Uele   =   -0.821323277120  dUele     =   0.000000186098
<DFT>  NormRD =    0.000482951063  Criterion =   0.000000036749

******************* MD= 1  SCF=93 *******************
<Poisson>  Poisson's equation using FFT...
<Set_Hamiltonian>  Hamiltonian matrix for VNA+dVH+Vxc...
<VQE>  Solving the eigenvalue problem...
vqe time elapsed: 0m 0s

    1    H  MulP   0.4999  0.4999 sum   0.9998
    2    H  MulP   0.5001  0.5001 sum   1.0001
    3    H  MulP   0.4998  0.4998 sum   0.9995
    4    H  MulP   0.5003  0.5003 sum   1.0005
 Sum of MulP: up   =     2.00000 down          =     2.00000
              total=     4.00000 ideal(neutral)=     4.00000
<DFT>  Total Spin Moment (muB) =  0.000000000000
<DFT>  Mixing_weight= 0.001985810874
<DFT>  Uele   =   -0.821323285693  dUele     =   0.000000008573
<DFT>  NormRD =    0.000561944478  Criterion =   0.000000036749
<MD= 1>  Force calculation
  Force calculation #1
  Force calculation #2
  Force calculation #3
  Force calculation #4
  Force calculation #5
<MD= 1>  Total Energy
  Force calculation #6
  Force calculation #7

*******************************************************
                  Dipole moment (Debye)                 
*******************************************************

 Absolute D        2.20698368

                      Dx                Dy                Dz
 Total              2.20698368       -0.00000000       -0.00000000
 Core              86.45772237        0.00000000        0.00000000
 Electron         -84.25073869       -0.00000000       -0.00000000
 Back ground       -0.00000000        0.00000000       -0.00000000

*******************************************************
                Total Energy (Hartree) at MD = 1        
*******************************************************

  Uele  =      -0.821323285693

  Ukin  =       1.875265747308
  UH0   =      -2.245518265526
  UH1   =       0.000374454138
  Una   =      -1.758712278122
  Unl   =       0.253621209461
  Uxc0  =      -0.495955956588
  Uxc1  =      -0.495955956588
  Ucore =       1.058354498000
  Uhub  =       0.000000000000
  Ucs   =       0.000000000000
  Uzs   =       0.000000000000
  Uzo   =       0.000000000000
  Uef   =       0.000000000000
  UvdW  =       0.000000000000
  Uch   =       0.000000000000
  Utot  =      -1.808526547917

  UpV   =       0.000000000000
  Enpy  =      -1.808526547917
  Note:

  Uele:   band energy
  Ukin:   kinetic energy
  UH0:    electric part of screened Coulomb energy
  UH1:    difference electron-electron Coulomb energy
  Una:    neutral atom potential energy
  Unl:    non-local potential energy
  Uxc0:   exchange-correlation energy for alpha spin
  Uxc1:   exchange-correlation energy for beta spin
  Ucore:  core-core Coulomb energy
  Uhub:   LDA+U energy
  Ucs:    constraint energy for spin orientation
  Uzs:    Zeeman term for spin magnetic moment
  Uzo:    Zeeman term for orbital magnetic moment
  Uef:    electric energy by electric field
  UvdW:   semi-empirical vdW energy 
  Uch:    penalty term to create a core hole
  UpV:    pressure times volume
  Enpy:   Enthalpy = Utot + UpV
  (see also PRB 72, 045121(2005) for the energy contributions)


*******************************************************
           Computational times (s) at MD = 1            
*******************************************************

  DFT in total      =  711.45350

  Set_OLP_Kin       =    0.06194
  Set_Nonlocal      =    0.04622
  Set_ProExpn_VNA   =    0.14505
  Set_Hamiltonian   =    0.07517
  Poisson           =    0.15311
  diagonalization   =  701.23613
  Mixing_DM         =    0.00187
  Force             =    0.00355
  Total_Energy      =    0.36331
  Set_Aden_Grid     =    0.00159
  Set_Orbitals_Grid =    0.00101
  Set_Density_Grid  =    0.02995
  RestartFileDFT    =    0.35802
  Mulliken_Charge   =    0.04666
  FFT(2D)_Density   =    0.00000

The SCF was achieved at MD=   1

*******************************************************
             MD or geometry opt. at MD = 1              
*******************************************************


outputting data on grids to files...


***********************************************************
***********************************************************
               Computational Time (second)                 
***********************************************************
***********************************************************

                               Min_ID   Min_Time       Max_ID   Max_Time
   Total Computational Time =     0      715.391          0      715.391
   readfile                 =     0        2.351          0        2.351
   truncation               =     0        0.103          0        0.103
   MD_pac                   =     0        0.125          0        0.125
   OutData                  =     0        0.894          0        0.894
   DFT                      =     0      711.453          0      711.453

*** In DFT ***

   Set_OLP_Kin              =     0        0.062          0        0.062
   Set_Nonlocal             =     0        0.046          0        0.046
   Set_ProExpn_VNA          =     0        0.145          0        0.145
   Set_Hamiltonian          =     0        0.075          0        0.075
   Poisson                  =     0        0.153          0        0.153
   Diagonalization          =     0      701.236          0      701.236
   Mixing_DM                =     0        0.002          0        0.002
   Force                    =     0        0.004          0        0.004
   Total_Energy             =     0        0.363          0        0.363
   Set_Aden_Grid            =     0        0.002          0        0.002
   Set_Orbitals_Grid        =     0        0.001          0        0.001
   Set_Density_Grid         =     0        0.030          0        0.030
   RestartFileDFT           =     0        0.358          0        0.358
   Mulliken_Charge          =     0        0.047          0        0.047
   FFT(2D)_Density          =     0        0.000          0        0.000
   Others                   =     0        8.930          0        8.930

The calculation was normally finished.
<DFT> Parameters
method = openmx-vqe
N = 4  R = 3.0  np = 1
dir_output = /home/yerin/qdft/hchain/output/N4/openmx-vqe_R3.00

run_openmx Done: 11m 56s


# Time Start   : Fri Jun 27 05:57:39 KST 2025
# Time End     : Fri Jun 27 06:13:20 KST 2025
# Time Elapsed : 0h 15m 41.826307077s

