
The number of threads in each node for OpenMP parallelization is 1.


*******************************************************
*******************************************************
 Welcome to OpenMX   Ver. 3.9.9                           
 Copyright (C), 2002-2019, T. Ozaki                    
 OpenMX comes with ABSOLUTELY NO WARRANTY.             
 This is free software, and you are welcome to         
 redistribute it under the constitution of the GNU-GPL.
*******************************************************
*******************************************************



<Input_std>  Your input file was normally read.
<Input_std>  The system includes 1 species and 4 atoms.

*******************************************************
                     PAO and VPS                       
*******************************************************

<SetPara_DFT>  PAOs of species H were normally found.
<SetPara_DFT>  VPSs of species H were normally found.
               H_CA19.vps is j-dependent.
               In case of scf.SpinOrbit.Coupling=off,
               j-dependent pseudo potentials are averaged by j-degeneracy,
               which corresponds to a scalar relativistic treatment.

*******************************************************
     Fourier transform of PAO and projectors of VNL    
*******************************************************

<FT_PAO>          Fourier transform of pseudo atomic orbitals
<FT_NLP>          Fourier transform of non-local projectors
<FT_ProExpn_VNA>  Fourier transform of VNA separable projectors
<FT_VNA>          Fourier transform of VNA potentials
<FT_ProductPAO>   Fourier transform of product of PAOs

*******************************************************
  Allocation of atoms to processors at MD_iter=    1     
*******************************************************

 proc =   0  # of atoms=   4  estimated weight=         4.00000




*******************************************************
        Analysis of neighbors and setting of grids        
*******************************************************

TFNAN=      44   Average FNAN=  11.00000
TSNAN=       0   Average SNAN=   0.00000
<truncation> CpyCell= 1 ct_AN=   1 FNAN SNAN  11   0
<truncation> CpyCell= 1 ct_AN=   2 FNAN SNAN  11   0
<truncation> CpyCell= 1 ct_AN=   3 FNAN SNAN  11   0
<truncation> CpyCell= 1 ct_AN=   4 FNAN SNAN  11   0
TFNAN=      76   Average FNAN=  19.00000
TSNAN=       0   Average SNAN=   0.00000
<truncation> CpyCell= 2 ct_AN=   1 FNAN SNAN  19   0
<truncation> CpyCell= 2 ct_AN=   2 FNAN SNAN  19   0
<truncation> CpyCell= 2 ct_AN=   3 FNAN SNAN  19   0
<truncation> CpyCell= 2 ct_AN=   4 FNAN SNAN  19   0
TFNAN=      96   Average FNAN=  24.00000
TSNAN=       6   Average SNAN=   1.50000
<truncation> CpyCell= 3 ct_AN=   1 FNAN SNAN  24   1
<truncation> CpyCell= 3 ct_AN=   2 FNAN SNAN  24   2
<truncation> CpyCell= 3 ct_AN=   3 FNAN SNAN  24   2
<truncation> CpyCell= 3 ct_AN=   4 FNAN SNAN  24   1
TFNAN=      96   Average FNAN=  24.00000
TSNAN=      12   Average SNAN=   3.00000
<truncation> CpyCell= 4 ct_AN=   1 FNAN SNAN  24   3
<truncation> CpyCell= 4 ct_AN=   2 FNAN SNAN  24   3
<truncation> CpyCell= 4 ct_AN=   3 FNAN SNAN  24   3
<truncation> CpyCell= 4 ct_AN=   4 FNAN SNAN  24   3
TFNAN=      96   Average FNAN=  24.00000
TSNAN=      12   Average SNAN=   3.00000
<truncation> CpyCell= 4 ct_AN=   1 FNAN SNAN  24   3
<truncation> CpyCell= 4 ct_AN=   2 FNAN SNAN  24   3
<truncation> CpyCell= 4 ct_AN=   3 FNAN SNAN  24   3
<truncation> CpyCell= 4 ct_AN=   4 FNAN SNAN  24   3
<Check_System> The system is chain.
lattice vectors (bohr)
A  =  3.779451977158,  0.000000000000,  0.000000000000
B  =  0.000000000000, 28.345889828684,  0.000000000000
C  =  0.000000000000,  0.000000000000, 28.345889828684
reciprocal lattice vectors (bohr^-1)
RA =  1.662459357905,  0.000000000000,  0.000000000000
RB =  0.000000000000,  0.221661247721,  0.000000000000
RC =  0.000000000000,  0.000000000000,  0.221661247721
Grid_Origin  0.000000000000 -13.700513417197 -13.700513417197
Cell_Volume =   3036.749866696867 (Bohr^3)
GridVol     =      0.843541629638 (Bohr^3)
Grid_Origin  0.000000000000 -13.700513417197 -13.700513417197
Cell_Volume =   3036.749866696867 (Bohr^3)
GridVol     =      0.843541629638 (Bohr^3)
<UCell_Box> Info. of cutoff energy and num. of grids
lattice vectors (bohr)
A  =  3.779451977158,  0.000000000000,  0.000000000000
B  =  0.000000000000, 28.345889828684,  0.000000000000
C  =  0.000000000000,  0.000000000000, 28.345889828684
reciprocal lattice vectors (bohr^-1)
RA =  1.662459357905,  0.000000000000,  0.000000000000
RB =  0.000000000000,  0.221661247721,  0.000000000000
RC =  0.000000000000,  0.000000000000,  0.221661247721
Required cutoff energy (Ryd) for 3D-grids = 11.0248
    Used cutoff energy (Ryd) for 3D-grids = 11.0551, 11.0551, 11.0551
Num. of grids of a-, b-, and c-axes =  4, 30, 30
Grid_Origin  0.000000000000 -13.700513417197 -13.700513417197
Cell_Volume =   3036.749866696867 (Bohr^3)
GridVol     =      0.843541629638 (Bohr^3)
Cell vectors (bohr) of the grid cell (gtv)
  gtv_a =  0.944862994289,  0.000000000000,  0.000000000000
  gtv_b =  0.000000000000,  0.944862994289,  0.000000000000
  gtv_c =  0.000000000000,  0.000000000000,  0.944862994289
  |gtv_a| =  0.944862994289
  |gtv_b| =  0.944862994289
  |gtv_c| =  0.944862994289
Num. of grids overlapping with atom    1 = 1056
Num. of grids overlapping with atom    2 = 1056
Num. of grids overlapping with atom    3 = 1056
Num. of grids overlapping with atom    4 = 1056
<QDFT> Parameters
N = 4  Ne = 4  Nocc = 4  M = 2  Nl = 3

*******************************************************
             SCF calculation at MD = 1                
*******************************************************

<MD= 1>  Calculation of the overlap matrix
<MD= 1>  Calculation of the nonlocal matrix
<MD= 1>  Calculation of the VNA projector matrix

******************* MD= 1  SCF= 1 *******************
<VQE>  Solving the eigenvalue problem...
vqe time elapsed: 0m 9s

    1    H  MulP   0.5000  0.5000 sum   1.0000
    2    H  MulP   0.5000  0.5000 sum   1.0000
    3    H  MulP   0.5000  0.5000 sum   1.0000
    4    H  MulP   0.5000  0.5000 sum   1.0000
 Sum of MulP: up   =     2.00000 down          =     2.00000
              total=     4.00000 ideal(neutral)=     4.00000
<DFT>  Total Spin Moment (muB) =  0.000000000000
<DFT>  Mixing_weight= 0.300000000000
<DFT>  Uele   =   -1.766242748324  dUele     =   1.000000000000
<DFT>  NormRD =    1.000000000000  Criterion =   0.000000036749

******************* MD= 1  SCF= 2 *******************
<Poisson>  Poisson's equation using FFT...
<Set_Hamiltonian>  Hamiltonian matrix for VNA+dVH+Vxc...
<VQE>  Solving the eigenvalue problem...
vqe time elapsed: 0m 0s

    1    H  MulP   0.5000  0.5000 sum   1.0000
    2    H  MulP   0.5000  0.5000 sum   1.0000
    3    H  MulP   0.5000  0.5000 sum   1.0000
    4    H  MulP   0.5000  0.5000 sum   1.0000
 Sum of MulP: up   =     2.00000 down          =     2.00000
              total=     4.00000 ideal(neutral)=     4.00000
<DFT>  Total Spin Moment (muB) =  0.000000000000
<DFT>  Mixing_weight= 0.307632137840
<DFT>  Uele   =   -1.646074561983  dUele     =   0.120168186340
<DFT>  NormRD =    0.157509680617  Criterion =   0.000000036749

******************* MD= 1  SCF= 3 *******************
<Poisson>  Poisson's equation using FFT...
<Set_Hamiltonian>  Hamiltonian matrix for VNA+dVH+Vxc...
<VQE>  Solving the eigenvalue problem...
vqe time elapsed: 0m 0s

    1    H  MulP   0.5000  0.5000 sum   1.0000
    2    H  MulP   0.5000  0.5000 sum   1.0000
    3    H  MulP   0.5000  0.5000 sum   1.0000
    4    H  MulP   0.5000  0.5000 sum   1.0000
 Sum of MulP: up   =     2.00000 down          =     2.00000
              total=     4.00000 ideal(neutral)=     4.00000
<DFT>  Total Spin Moment (muB) =  0.000000000000
<DFT>  Mixing_weight= 0.400000000000
<DFT>  Uele   =   -1.537892639431  dUele     =   0.108181922552
<DFT>  NormRD =    0.109054640838  Criterion =   0.000000036749

******************* MD= 1  SCF= 4 *******************
<Poisson>  Poisson's equation using FFT...
<Set_Hamiltonian>  Hamiltonian matrix for VNA+dVH+Vxc...
<VQE>  Solving the eigenvalue problem...
vqe time elapsed: 0m 0s

    1    H  MulP   0.5000  0.5000 sum   1.0000
    2    H  MulP   0.5000  0.5000 sum   1.0000
    3    H  MulP   0.5000  0.5000 sum   1.0000
    4    H  MulP   0.5000  0.5000 sum   1.0000
 Sum of MulP: up   =     2.00000 down          =     2.00000
              total=     4.00000 ideal(neutral)=     4.00000
<DFT>  Total Spin Moment (muB) =  0.000000000000
<DFT>  Mixing_weight= 0.400000000000
<DFT>  Uele   =   -1.375619755602  dUele     =   0.162272883829
<DFT>  NormRD =    0.000037324455  Criterion =   0.000000036749

******************* MD= 1  SCF= 5 *******************
<Poisson>  Poisson's equation using FFT...
<Set_Hamiltonian>  Hamiltonian matrix for VNA+dVH+Vxc...
<VQE>  Solving the eigenvalue problem...
vqe time elapsed: 0m 0s

    1    H  MulP   0.5000  0.5000 sum   1.0000
    2    H  MulP   0.5000  0.5000 sum   1.0000
    3    H  MulP   0.5000  0.5000 sum   1.0000
    4    H  MulP   0.5000  0.5000 sum   1.0000
 Sum of MulP: up   =     2.00000 down          =     2.00000
              total=     4.00000 ideal(neutral)=     4.00000
<DFT>  Total Spin Moment (muB) =  0.000000000000
<DFT>  Mixing_weight= 0.400000000000
<DFT>  Uele   =   -1.375619755602  dUele     =   0.000000000000
<DFT>  NormRD =    0.000030467316  Criterion =   0.000000036749
<MD= 1>  Force calculation
  Force calculation #1
  Force calculation #2
  Force calculation #3
  Force calculation #4
  Force calculation #5
<MD= 1>  Total Energy
  Force calculation #6
  Force calculation #7

*******************************************************
                  Dipole moment (Debye)                 
*******************************************************

 Absolute D        0.58467601

                      Dx                Dy                Dz
 Total              0.58467601       -0.00000000       -0.00000000
 Core              14.40962040        0.00000000        0.00000000
 Electron         -13.82494439       -0.00000000       -0.00000000
 Back ground       -0.00000000        0.00000000       -0.00000000

*******************************************************
                Total Energy (Hartree) at MD = 1        
*******************************************************

  Uele  =      -1.375619755602

  Ukin  =       5.202987667300
  UH0   =     -11.732611673093
  UH1   =       0.053360173256
  Una   =      -5.748042941953
  Unl   =       0.721916703192
  Uxc0  =      -0.790709290121
  Uxc1  =      -0.790709290121
  Ucore =      13.137187918104
  Uhub  =       0.000000000000
  Ucs   =       0.000000000000
  Uzs   =       0.000000000000
  Uzo   =       0.000000000000
  Uef   =       0.000000000000
  UvdW  =       0.000000000000
  Uch   =       0.000000000000
  Utot  =       0.053379266563

  UpV   =       0.000000000000
  Enpy  =       0.053379266563
  Note:

  Uele:   band energy
  Ukin:   kinetic energy
  UH0:    electric part of screened Coulomb energy
  UH1:    difference electron-electron Coulomb energy
  Una:    neutral atom potential energy
  Unl:    non-local potential energy
  Uxc0:   exchange-correlation energy for alpha spin
  Uxc1:   exchange-correlation energy for beta spin
  Ucore:  core-core Coulomb energy
  Uhub:   LDA+U energy
  Ucs:    constraint energy for spin orientation
  Uzs:    Zeeman term for spin magnetic moment
  Uzo:    Zeeman term for orbital magnetic moment
  Uef:    electric energy by electric field
  UvdW:   semi-empirical vdW energy 
  Uch:    penalty term to create a core hole
  UpV:    pressure times volume
  Enpy:   Enthalpy = Utot + UpV
  (see also PRB 72, 045121(2005) for the energy contributions)


*******************************************************
           Computational times (s) at MD = 1            
*******************************************************

  DFT in total      =   20.68296

  Set_OLP_Kin       =    0.13571
  Set_Nonlocal      =    0.21142
  Set_ProExpn_VNA   =    0.32467
  Set_Hamiltonian   =    0.00273
  Poisson           =    0.00156
  diagonalization   =   11.97060
  Mixing_DM         =    0.00006
  Force             =    0.05651
  Total_Energy      =    1.55152
  Set_Aden_Grid     =    0.00084
  Set_Orbitals_Grid =    0.00099
  Set_Density_Grid  =    0.00295
  RestartFileDFT    =    0.25587
  Mulliken_Charge   =    0.04492
  FFT(2D)_Density   =    0.00000

The SCF was achieved at MD=   1

*******************************************************
             MD or geometry opt. at MD = 1              
*******************************************************


outputting data on grids to files...


***********************************************************
***********************************************************
               Computational Time (second)                 
***********************************************************
***********************************************************

                               Min_ID   Min_Time       Max_ID   Max_Time
   Total Computational Time =     0       24.781          0       24.781
   readfile                 =     0        2.451          0        2.451
   truncation               =     0        0.099          0        0.099
   MD_pac                   =     0        0.098          0        0.098
   OutData                  =     0        0.835          0        0.835
   DFT                      =     0       20.683          0       20.683

*** In DFT ***

   Set_OLP_Kin              =     0        0.136          0        0.136
   Set_Nonlocal             =     0        0.211          0        0.211
   Set_ProExpn_VNA          =     0        0.325          0        0.325
   Set_Hamiltonian          =     0        0.003          0        0.003
   Poisson                  =     0        0.002          0        0.002
   Diagonalization          =     0       11.971          0       11.971
   Mixing_DM                =     0        0.000          0        0.000
   Force                    =     0        0.057          0        0.057
   Total_Energy             =     0        1.552          0        1.552
   Set_Aden_Grid            =     0        0.001          0        0.001
   Set_Orbitals_Grid        =     0        0.001          0        0.001
   Set_Density_Grid         =     0        0.003          0        0.003
   RestartFileDFT           =     0        0.256          0        0.256
   Mulliken_Charge          =     0        0.045          0        0.045
   FFT(2D)_Density          =     0        0.000          0        0.000
   Others                   =     0        6.123          0        6.123

The calculation was normally finished.
<DFT> Parameters
method = openmx-vqe
N = 4  R = 0.5  np = 1
dir_output = /home/yerin/qdft/hchain/output/N4/openmx-vqe_R0.50

run_openmx Done: 0m 26s


The number of threads in each node for OpenMP parallelization is 1.


*******************************************************
*******************************************************
 Welcome to OpenMX   Ver. 3.9.9                           
 Copyright (C), 2002-2019, T. Ozaki                    
 OpenMX comes with ABSOLUTELY NO WARRANTY.             
 This is free software, and you are welcome to         
 redistribute it under the constitution of the GNU-GPL.
*******************************************************
*******************************************************



<Input_std>  Your input file was normally read.
<Input_std>  The system includes 1 species and 4 atoms.

*******************************************************
                     PAO and VPS                       
*******************************************************

<SetPara_DFT>  PAOs of species H were normally found.
<SetPara_DFT>  VPSs of species H were normally found.
               H_CA19.vps is j-dependent.
               In case of scf.SpinOrbit.Coupling=off,
               j-dependent pseudo potentials are averaged by j-degeneracy,
               which corresponds to a scalar relativistic treatment.

*******************************************************
     Fourier transform of PAO and projectors of VNL    
*******************************************************

<FT_PAO>          Fourier transform of pseudo atomic orbitals
<FT_NLP>          Fourier transform of non-local projectors
<FT_ProExpn_VNA>  Fourier transform of VNA separable projectors
<FT_VNA>          Fourier transform of VNA potentials
<FT_ProductPAO>   Fourier transform of product of PAOs

*******************************************************
  Allocation of atoms to processors at MD_iter=    1     
*******************************************************

 proc =   0  # of atoms=   4  estimated weight=         4.00000




*******************************************************
        Analysis of neighbors and setting of grids        
*******************************************************

TFNAN=      44   Average FNAN=  11.00000
TSNAN=       0   Average SNAN=   0.00000
<truncation> CpyCell= 1 ct_AN=   1 FNAN SNAN  11   0
<truncation> CpyCell= 1 ct_AN=   2 FNAN SNAN  11   0
<truncation> CpyCell= 1 ct_AN=   3 FNAN SNAN  11   0
<truncation> CpyCell= 1 ct_AN=   4 FNAN SNAN  11   0
TFNAN=      74   Average FNAN=  18.50000
TSNAN=       2   Average SNAN=   0.50000
<truncation> CpyCell= 2 ct_AN=   1 FNAN SNAN  18   1
<truncation> CpyCell= 2 ct_AN=   2 FNAN SNAN  19   0
<truncation> CpyCell= 2 ct_AN=   3 FNAN SNAN  19   0
<truncation> CpyCell= 2 ct_AN=   4 FNAN SNAN  18   1
TFNAN=      80   Average FNAN=  20.00000
TSNAN=       8   Average SNAN=   2.00000
<truncation> CpyCell= 3 ct_AN=   1 FNAN SNAN  20   2
<truncation> CpyCell= 3 ct_AN=   2 FNAN SNAN  20   2
<truncation> CpyCell= 3 ct_AN=   3 FNAN SNAN  20   2
<truncation> CpyCell= 3 ct_AN=   4 FNAN SNAN  20   2
TFNAN=      80   Average FNAN=  20.00000
TSNAN=       8   Average SNAN=   2.00000
<truncation> CpyCell= 4 ct_AN=   1 FNAN SNAN  20   2
<truncation> CpyCell= 4 ct_AN=   2 FNAN SNAN  20   2
<truncation> CpyCell= 4 ct_AN=   3 FNAN SNAN  20   2
<truncation> CpyCell= 4 ct_AN=   4 FNAN SNAN  20   2
TFNAN=      80   Average FNAN=  20.00000
TSNAN=       8   Average SNAN=   2.00000
<truncation> CpyCell= 4 ct_AN=   1 FNAN SNAN  20   2
<truncation> CpyCell= 4 ct_AN=   2 FNAN SNAN  20   2
<truncation> CpyCell= 4 ct_AN=   3 FNAN SNAN  20   2
<truncation> CpyCell= 4 ct_AN=   4 FNAN SNAN  20   2
<Check_System> The system is chain.
lattice vectors (bohr)
A  =  4.535342372589,  0.000000000000,  0.000000000000
B  =  0.000000000000, 28.345889828684,  0.000000000000
C  =  0.000000000000,  0.000000000000, 28.345889828684
reciprocal lattice vectors (bohr^-1)
RA =  1.385382798254,  0.000000000000,  0.000000000000
RB =  0.000000000000,  0.221661247721,  0.000000000000
RC =  0.000000000000,  0.000000000000,  0.221661247721
Grid_Origin -0.113383559315 -13.700513417197 -13.700513417197
Cell_Volume =   3644.099840036240 (Bohr^3)
GridVol     =      0.809799964452 (Bohr^3)
Grid_Origin -0.113383559315 -13.700513417197 -13.700513417197
Cell_Volume =   3644.099840036240 (Bohr^3)
GridVol     =      0.809799964452 (Bohr^3)
<UCell_Box> Info. of cutoff energy and num. of grids
lattice vectors (bohr)
A  =  4.535342372589,  0.000000000000,  0.000000000000
B  =  0.000000000000, 28.345889828684,  0.000000000000
C  =  0.000000000000,  0.000000000000, 28.345889828684
reciprocal lattice vectors (bohr^-1)
RA =  1.385382798254,  0.000000000000,  0.000000000000
RB =  0.000000000000,  0.221661247721,  0.000000000000
RC =  0.000000000000,  0.000000000000,  0.221661247721
Required cutoff energy (Ryd) for 3D-grids = 11.0248
    Used cutoff energy (Ryd) for 3D-grids = 11.9955, 11.0551, 11.0551
Num. of grids of a-, b-, and c-axes =  5, 30, 30
Grid_Origin -0.113383559315 -13.700513417197 -13.700513417197
Cell_Volume =   3644.099840036240 (Bohr^3)
GridVol     =      0.809799964452 (Bohr^3)
Cell vectors (bohr) of the grid cell (gtv)
  gtv_a =  0.907068474518,  0.000000000000,  0.000000000000
  gtv_b =  0.000000000000,  0.944862994289,  0.000000000000
  gtv_c =  0.000000000000,  0.000000000000,  0.944862994289
  |gtv_a| =  0.907068474518
  |gtv_b| =  0.944862994289
  |gtv_c| =  0.944862994289
Num. of grids overlapping with atom    1 = 1112
Num. of grids overlapping with atom    2 = 1112
Num. of grids overlapping with atom    3 = 1112
Num. of grids overlapping with atom    4 = 1112
<QDFT> Parameters
N = 4  Ne = 4  Nocc = 4  M = 2  Nl = 3

*******************************************************
             SCF calculation at MD = 1                
*******************************************************

<MD= 1>  Calculation of the overlap matrix
<MD= 1>  Calculation of the nonlocal matrix
<MD= 1>  Calculation of the VNA projector matrix

******************* MD= 1  SCF= 1 *******************
<VQE>  Solving the eigenvalue problem...
vqe time elapsed: 0m 9s

    1    H  MulP   0.5001  0.5001 sum   1.0002
    2    H  MulP   0.4999  0.4999 sum   0.9998
    3    H  MulP   0.4882  0.4882 sum   0.9765
    4    H  MulP   0.5117  0.5117 sum   1.0235
 Sum of MulP: up   =     2.00000 down          =     2.00000
              total=     4.00000 ideal(neutral)=     4.00000
<DFT>  Total Spin Moment (muB) =  0.000000000000
<DFT>  Mixing_weight= 0.300000000000
<DFT>  Uele   =   -1.742217522822  dUele     =   1.000000000000
<DFT>  NormRD =    1.000000000000  Criterion =   0.000000036749

******************* MD= 1  SCF= 2 *******************
<Poisson>  Poisson's equation using FFT...
<Set_Hamiltonian>  Hamiltonian matrix for VNA+dVH+Vxc...
<VQE>  Solving the eigenvalue problem...
vqe time elapsed: 0m 4s

    1    H  MulP   0.4891  0.4891 sum   0.9782
    2    H  MulP   0.5108  0.5108 sum   1.0217
    3    H  MulP   0.4824  0.4824 sum   0.9648
    4    H  MulP   0.5177  0.5177 sum   1.0354
 Sum of MulP: up   =     2.00000 down          =     2.00000
              total=     4.00000 ideal(neutral)=     4.00000
<DFT>  Total Spin Moment (muB) =  0.000000000000
<DFT>  Mixing_weight= 0.302368022316
<DFT>  Uele   =   -1.670778765500  dUele     =   0.071438757322
<DFT>  NormRD =    0.088496269905  Criterion =   0.000000036749

******************* MD= 1  SCF= 3 *******************
<Poisson>  Poisson's equation using FFT...
<Set_Hamiltonian>  Hamiltonian matrix for VNA+dVH+Vxc...
<VQE>  Solving the eigenvalue problem...
vqe time elapsed: 0m 3s

    1    H  MulP   0.4670  0.4670 sum   0.9341
    2    H  MulP   0.5326  0.5326 sum   1.0653
    3    H  MulP   0.4649  0.4649 sum   0.9298
    4    H  MulP   0.5354  0.5354 sum   1.0709
 Sum of MulP: up   =     2.00000 down          =     2.00000
              total=     4.00000 ideal(neutral)=     4.00000
<DFT>  Total Spin Moment (muB) =  0.000000000000
<DFT>  Mixing_weight= 0.400000000000
<DFT>  Uele   =   -1.605392168291  dUele     =   0.065386597209
<DFT>  NormRD =    0.062187033995  Criterion =   0.000000036749

******************* MD= 1  SCF= 4 *******************
<Poisson>  Poisson's equation using FFT...
<Set_Hamiltonian>  Hamiltonian matrix for VNA+dVH+Vxc...
<VQE>  Solving the eigenvalue problem...
vqe time elapsed: 0m 4s

    1    H  MulP   0.4403  0.4403 sum   0.8805
    2    H  MulP   0.5612  0.5612 sum   1.1224
    3    H  MulP   0.4383  0.4383 sum   0.8765
    4    H  MulP   0.5602  0.5602 sum   1.1205
 Sum of MulP: up   =     2.00000 down          =     2.00000
              total=     4.00000 ideal(neutral)=     4.00000
<DFT>  Total Spin Moment (muB) =  0.000000000000
<DFT>  Mixing_weight= 0.001000000000
<DFT>  Uele   =   -1.507720947829  dUele     =   0.097671220462
<DFT>  NormRD =    6.336253501624  Criterion =   0.000000036749

******************* MD= 1  SCF= 5 *******************
<Poisson>  Poisson's equation using FFT...
<Set_Hamiltonian>  Hamiltonian matrix for VNA+dVH+Vxc...
<VQE>  Solving the eigenvalue problem...
vqe time elapsed: 0m 4s

    1    H  MulP   0.4486  0.4486 sum   0.8971
    2    H  MulP   0.5504  0.5504 sum   1.1007
    3    H  MulP   0.4495  0.4495 sum   0.8989
    4    H  MulP   0.5516  0.5516 sum   1.1032
 Sum of MulP: up   =     2.00000 down          =     2.00000
              total=     4.00000 ideal(neutral)=     4.00000
<DFT>  Total Spin Moment (muB) =  0.000000000000
<DFT>  Mixing_weight= 0.002830623476
<DFT>  Uele   =   -1.508179002194  dUele     =   0.000458054365
<DFT>  NormRD =    5.095549277295  Criterion =   0.000000036749

******************* MD= 1  SCF= 6 *******************
<Poisson>  Poisson's equation using FFT...
<Set_Hamiltonian>  Hamiltonian matrix for VNA+dVH+Vxc...
<VQE>  Solving the eigenvalue problem...
vqe time elapsed: 0m 1s

    1    H  MulP   0.4484  0.4484 sum   0.8968
    2    H  MulP   0.5505  0.5505 sum   1.1010
    3    H  MulP   0.4493  0.4493 sum   0.8987
    4    H  MulP   0.5517  0.5517 sum   1.1035
 Sum of MulP: up   =     2.00000 down          =     2.00000
              total=     4.00000 ideal(neutral)=     4.00000
<DFT>  Total Spin Moment (muB) =  0.000000000000
<DFT>  Mixing_weight= 0.002830623476
<DFT>  Uele   =   -1.508192839613  dUele     =   0.000013837419
<DFT>  NormRD =    5.100846826330  Criterion =   0.000000036749

******************* MD= 1  SCF= 7 *******************
<Poisson>  Poisson's equation using FFT...
<Set_Hamiltonian>  Hamiltonian matrix for VNA+dVH+Vxc...
<VQE>  Solving the eigenvalue problem...
vqe time elapsed: 0m 0s

    1    H  MulP   0.4483  0.4483 sum   0.8966
    2    H  MulP   0.5506  0.5506 sum   1.1013
    3    H  MulP   0.4492  0.4492 sum   0.8984
    4    H  MulP   0.5519  0.5519 sum   1.1038
 Sum of MulP: up   =     2.00000 down          =     2.00000
              total=     4.00000 ideal(neutral)=     4.00000
<DFT>  Total Spin Moment (muB) =  0.000000000000
<DFT>  Mixing_weight= 0.002830623476
<DFT>  Uele   =   -1.508206530510  dUele     =   0.000013690897
<DFT>  NormRD =    5.105876955851  Criterion =   0.000000036749

******************* MD= 1  SCF= 8 *******************
<Poisson>  Poisson's equation using FFT...
<Set_Hamiltonian>  Hamiltonian matrix for VNA+dVH+Vxc...
<VQE>  Solving the eigenvalue problem...
vqe time elapsed: 0m 20s

    1    H  MulP   0.5777  0.5777 sum   1.1554
    2    H  MulP   0.4181  0.4181 sum   0.8362
    3    H  MulP   0.5342  0.5342 sum   1.0684
    4    H  MulP   0.4700  0.4700 sum   0.9400
 Sum of MulP: up   =     2.00000 down          =     2.00000
              total=     4.00000 ideal(neutral)=     4.00000
<DFT>  Total Spin Moment (muB) =  0.000000000000
<DFT>  Mixing_weight= 0.002830623476
<DFT>  Uele   =   -1.475444792130  dUele     =   0.032761738380
<DFT>  NormRD =    4.243189209903  Criterion =   0.000000036749

******************* MD= 1  SCF= 9 *******************
<Poisson>  Poisson's equation using FFT...
<Set_Hamiltonian>  Hamiltonian matrix for VNA+dVH+Vxc...
<VQE>  Solving the eigenvalue problem...
vqe time elapsed: 0m 10s

    1    H  MulP   0.5758  0.5758 sum   1.1515
    2    H  MulP   0.4215  0.4215 sum   0.8431
    3    H  MulP   0.5476  0.5476 sum   1.0951
    4    H  MulP   0.4551  0.4551 sum   0.9103
 Sum of MulP: up   =     2.00000 down          =     2.00000
              total=     4.00000 ideal(neutral)=     4.00000
<DFT>  Total Spin Moment (muB) =  0.000000000000
<DFT>  Mixing_weight= 0.002830623476
<DFT>  Uele   =   -1.487638896648  dUele     =   0.012194104518
<DFT>  NormRD =    2.724951336429  Criterion =   0.000000036749

******************* MD= 1  SCF=10 *******************
<Poisson>  Poisson's equation using FFT...
<Set_Hamiltonian>  Hamiltonian matrix for VNA+dVH+Vxc...
<VQE>  Solving the eigenvalue problem...
vqe time elapsed: 0m 8s

    1    H  MulP   0.5742  0.5742 sum   1.1484
    2    H  MulP   0.4239  0.4239 sum   0.8478
    3    H  MulP   0.5523  0.5523 sum   1.1046
    4    H  MulP   0.4496  0.4496 sum   0.8992
 Sum of MulP: up   =     2.00000 down          =     2.00000
              total=     4.00000 ideal(neutral)=     4.00000
<DFT>  Total Spin Moment (muB) =  0.000000000000
<DFT>  Mixing_weight= 0.002830623476
<DFT>  Uele   =   -1.493433754068  dUele     =   0.005794857420
<DFT>  NormRD =    1.737641802427  Criterion =   0.000000036749

******************* MD= 1  SCF=11 *******************
<Poisson>  Poisson's equation using FFT...
<Set_Hamiltonian>  Hamiltonian matrix for VNA+dVH+Vxc...
<VQE>  Solving the eigenvalue problem...
vqe time elapsed: 0m 8s

    1    H  MulP   0.7249  0.7249 sum   1.4499
    2    H  MulP   0.2871  0.2871 sum   0.5742
    3    H  MulP   0.7562  0.7562 sum   1.5125
    4    H  MulP   0.2317  0.2317 sum   0.4634
 Sum of MulP: up   =     2.00000 down          =     2.00000
              total=     4.00000 ideal(neutral)=     4.00000
<DFT>  Total Spin Moment (muB) =  0.000000000000
<DFT>  Mixing_weight= 0.002830623476
<DFT>  Uele   =   -1.259775361645  dUele     =   0.233658392422
<DFT>  NormRD =   21.742638178627  Criterion =   0.000000036749

******************* MD= 1  SCF=12 *******************
<Poisson>  Poisson's equation using FFT...
<Set_Hamiltonian>  Hamiltonian matrix for VNA+dVH+Vxc...
<VQE>  Solving the eigenvalue problem...
vqe time elapsed: 0m 8s

    1    H  MulP   0.6158  0.6158 sum   1.2317
    2    H  MulP   0.3753  0.3753 sum   0.7507
    3    H  MulP   0.4561  0.4561 sum   0.9122
    4    H  MulP   0.5527  0.5527 sum   1.1054
 Sum of MulP: up   =     2.00000 down          =     2.00000
              total=     4.00000 ideal(neutral)=     4.00000
<DFT>  Total Spin Moment (muB) =  0.000000000000
<DFT>  Mixing_weight= 0.002830623476
<DFT>  Uele   =   -1.416047932043  dUele     =   0.156272570397
<DFT>  NormRD =    7.119684595453  Criterion =   0.000000036749

******************* MD= 1  SCF=13 *******************
<Poisson>  Poisson's equation using FFT...
<Set_Hamiltonian>  Hamiltonian matrix for VNA+dVH+Vxc...
<VQE>  Solving the eigenvalue problem...
vqe time elapsed: 0m 10s

    1    H  MulP   0.5828  0.5828 sum   1.1656
    2    H  MulP   0.4163  0.4163 sum   0.8326
    3    H  MulP   0.5682  0.5682 sum   1.1364
    4    H  MulP   0.4327  0.4327 sum   0.8654
 Sum of MulP: up   =     2.00000 down          =     2.00000
              total=     4.00000 ideal(neutral)=     4.00000
<DFT>  Total Spin Moment (muB) =  0.000000000000
<DFT>  Mixing_weight= 0.002830623476
<DFT>  Uele   =   -1.501818749402  dUele     =   0.085770817359
<DFT>  NormRD =    0.189011370122  Criterion =   0.000000036749

******************* MD= 1  SCF=14 *******************
<Poisson>  Poisson's equation using FFT...
<Set_Hamiltonian>  Hamiltonian matrix for VNA+dVH+Vxc...
<VQE>  Solving the eigenvalue problem...
vqe time elapsed: 0m 2s

    1    H  MulP   0.5822  0.5822 sum   1.1644
    2    H  MulP   0.4170  0.4170 sum   0.8340
    3    H  MulP   0.5685  0.5685 sum   1.1370
    4    H  MulP   0.4323  0.4323 sum   0.8646
 Sum of MulP: up   =     2.00000 down          =     2.00000
              total=     4.00000 ideal(neutral)=     4.00000
<DFT>  Total Spin Moment (muB) =  0.000000000000
<DFT>  Mixing_weight= 0.002830623476
<DFT>  Uele   =   -1.501841789119  dUele     =   0.000023039717
<DFT>  NormRD =    0.213608573128  Criterion =   0.000000036749

******************* MD= 1  SCF=15 *******************
<Poisson>  Poisson's equation using FFT...
<Set_Hamiltonian>  Hamiltonian matrix for VNA+dVH+Vxc...
<VQE>  Solving the eigenvalue problem...
vqe time elapsed: 0m 9s

    1    H  MulP   0.5719  0.5719 sum   1.1438
    2    H  MulP   0.4278  0.4278 sum   0.8557
    3    H  MulP   0.5624  0.5624 sum   1.1249
    4    H  MulP   0.4378  0.4378 sum   0.8757
 Sum of MulP: up   =     2.00000 down          =     2.00000
              total=     4.00000 ideal(neutral)=     4.00000
<DFT>  Total Spin Moment (muB) =  0.000000000000
<DFT>  Mixing_weight= 0.002830623476
<DFT>  Uele   =   -1.501367743288  dUele     =   0.000474045832
<DFT>  NormRD =    0.043774385655  Criterion =   0.000000036749

******************* MD= 1  SCF=16 *******************
<Poisson>  Poisson's equation using FFT...
<Set_Hamiltonian>  Hamiltonian matrix for VNA+dVH+Vxc...
<VQE>  Solving the eigenvalue problem...
vqe time elapsed: 0m 2s

    1    H  MulP   0.5730  0.5730 sum   1.1460
    2    H  MulP   0.4265  0.4265 sum   0.8531
    3    H  MulP   0.5619  0.5619 sum   1.1238
    4    H  MulP   0.4385  0.4385 sum   0.8771
 Sum of MulP: up   =     2.00000 down          =     2.00000
              total=     4.00000 ideal(neutral)=     4.00000
<DFT>  Total Spin Moment (muB) =  0.000000000000
<DFT>  Mixing_weight= 0.002830623476
<DFT>  Uele   =   -1.501651661124  dUele     =   0.000283917837
<DFT>  NormRD =    0.026750959597  Criterion =   0.000000036749

******************* MD= 1  SCF=17 *******************
<Poisson>  Poisson's equation using FFT...
<Set_Hamiltonian>  Hamiltonian matrix for VNA+dVH+Vxc...
<VQE>  Solving the eigenvalue problem...
vqe time elapsed: 0m 3s

    1    H  MulP   0.5737  0.5737 sum   1.1474
    2    H  MulP   0.4258  0.4258 sum   0.8515
    3    H  MulP   0.5614  0.5614 sum   1.1227
    4    H  MulP   0.4392  0.4392 sum   0.8784
 Sum of MulP: up   =     2.00000 down          =     2.00000
              total=     4.00000 ideal(neutral)=     4.00000
<DFT>  Total Spin Moment (muB) =  0.000000000000
<DFT>  Mixing_weight= 0.002830623476
<DFT>  Uele   =   -1.501914915556  dUele     =   0.000263254432
<DFT>  NormRD =    0.026821388431  Criterion =   0.000000036749

******************* MD= 1  SCF=18 *******************
<Poisson>  Poisson's equation using FFT...
<Set_Hamiltonian>  Hamiltonian matrix for VNA+dVH+Vxc...
<VQE>  Solving the eigenvalue problem...
vqe time elapsed: 0m 1s

    1    H  MulP   0.5736  0.5736 sum   1.1472
    2    H  MulP   0.4259  0.4259 sum   0.8517
    3    H  MulP   0.5613  0.5613 sum   1.1225
    4    H  MulP   0.4393  0.4393 sum   0.8786
 Sum of MulP: up   =     2.00000 down          =     2.00000
              total=     4.00000 ideal(neutral)=     4.00000
<DFT>  Total Spin Moment (muB) =  0.000000000000
<DFT>  Mixing_weight= 0.002830623476
<DFT>  Uele   =   -1.501917513123  dUele     =   0.000002597566
<DFT>  NormRD =    0.027596584090  Criterion =   0.000000036749

******************* MD= 1  SCF=19 *******************
<Poisson>  Poisson's equation using FFT...
<Set_Hamiltonian>  Hamiltonian matrix for VNA+dVH+Vxc...
<VQE>  Solving the eigenvalue problem...
vqe time elapsed: 0m 1s

    1    H  MulP   0.5737  0.5737 sum   1.1474
    2    H  MulP   0.4257  0.4257 sum   0.8514
    3    H  MulP   0.5614  0.5614 sum   1.1228
    4    H  MulP   0.4392  0.4392 sum   0.8784
 Sum of MulP: up   =     2.00000 down          =     2.00000
              total=     4.00000 ideal(neutral)=     4.00000
<DFT>  Total Spin Moment (muB) =  0.000000000000
<DFT>  Mixing_weight= 0.002830623476
<DFT>  Uele   =   -1.501924481747  dUele     =   0.000006968625
<DFT>  NormRD =    0.007051654211  Criterion =   0.000000036749

******************* MD= 1  SCF=20 *******************
<Poisson>  Poisson's equation using FFT...
<Set_Hamiltonian>  Hamiltonian matrix for VNA+dVH+Vxc...
<VQE>  Solving the eigenvalue problem...
vqe time elapsed: 0m 1s

    1    H  MulP   0.5736  0.5736 sum   1.1473
    2    H  MulP   0.4258  0.4258 sum   0.8516
    3    H  MulP   0.5613  0.5613 sum   1.1226
    4    H  MulP   0.4393  0.4393 sum   0.8786
 Sum of MulP: up   =     2.00000 down          =     2.00000
              total=     4.00000 ideal(neutral)=     4.00000
<DFT>  Total Spin Moment (muB) =  0.000000000000
<DFT>  Mixing_weight= 0.002830623476
<DFT>  Uele   =   -1.501926147729  dUele     =   0.000001665982
<DFT>  NormRD =    0.001484479526  Criterion =   0.000000036749

******************* MD= 1  SCF=21 *******************
<Poisson>  Poisson's equation using FFT...
<Set_Hamiltonian>  Hamiltonian matrix for VNA+dVH+Vxc...
<VQE>  Solving the eigenvalue problem...
vqe time elapsed: 0m 1s

    1    H  MulP   0.5738  0.5738 sum   1.1476
    2    H  MulP   0.4256  0.4256 sum   0.8513
    3    H  MulP   0.5614  0.5614 sum   1.1229
    4    H  MulP   0.4391  0.4391 sum   0.8783
 Sum of MulP: up   =     2.00000 down          =     2.00000
              total=     4.00000 ideal(neutral)=     4.00000
<DFT>  Total Spin Moment (muB) =  0.000000000000
<DFT>  Mixing_weight= 0.002830623476
<DFT>  Uele   =   -1.501928212575  dUele     =   0.000002064846
<DFT>  NormRD =    0.001088048725  Criterion =   0.000000036749

******************* MD= 1  SCF=22 *******************
<Poisson>  Poisson's equation using FFT...
<Set_Hamiltonian>  Hamiltonian matrix for VNA+dVH+Vxc...
<VQE>  Solving the eigenvalue problem...
vqe time elapsed: 0m 1s

    1    H  MulP   0.5737  0.5737 sum   1.1474
    2    H  MulP   0.4257  0.4257 sum   0.8515
    3    H  MulP   0.5613  0.5613 sum   1.1227
    4    H  MulP   0.4392  0.4392 sum   0.8785
 Sum of MulP: up   =     2.00000 down          =     2.00000
              total=     4.00000 ideal(neutral)=     4.00000
<DFT>  Total Spin Moment (muB) =  0.000000000000
<DFT>  Mixing_weight= 0.002830623476
<DFT>  Uele   =   -1.501927205347  dUele     =   0.000001007227
<DFT>  NormRD =    0.000927431631  Criterion =   0.000000036749

******************* MD= 1  SCF=23 *******************
<Poisson>  Poisson's equation using FFT...
<Set_Hamiltonian>  Hamiltonian matrix for VNA+dVH+Vxc...
<VQE>  Solving the eigenvalue problem...
vqe time elapsed: 0m 4s

    1    H  MulP   0.5766  0.5766 sum   1.1533
    2    H  MulP   0.4228  0.4228 sum   0.8455
    3    H  MulP   0.5643  0.5643 sum   1.1287
    4    H  MulP   0.4363  0.4363 sum   0.8725
 Sum of MulP: up   =     2.00000 down          =     2.00000
              total=     4.00000 ideal(neutral)=     4.00000
<DFT>  Total Spin Moment (muB) =  0.000000000000
<DFT>  Mixing_weight= 0.002830623476
<DFT>  Uele   =   -1.501929397008  dUele     =   0.000002191660
<DFT>  NormRD =    0.107618705795  Criterion =   0.000000036749

******************* MD= 1  SCF=24 *******************
<Poisson>  Poisson's equation using FFT...
<Set_Hamiltonian>  Hamiltonian matrix for VNA+dVH+Vxc...
<VQE>  Solving the eigenvalue problem...
vqe time elapsed: 0m 0s

    1    H  MulP   0.5766  0.5766 sum   1.1533
    2    H  MulP   0.4228  0.4228 sum   0.8455
    3    H  MulP   0.5643  0.5643 sum   1.1287
    4    H  MulP   0.4363  0.4363 sum   0.8725
 Sum of MulP: up   =     2.00000 down          =     2.00000
              total=     4.00000 ideal(neutral)=     4.00000
<DFT>  Total Spin Moment (muB) =  0.000000000000
<DFT>  Mixing_weight= 0.002830623476
<DFT>  Uele   =   -1.501929731956  dUele     =   0.000000334949
<DFT>  NormRD =    0.108832581290  Criterion =   0.000000036749

******************* MD= 1  SCF=25 *******************
<Poisson>  Poisson's equation using FFT...
<Set_Hamiltonian>  Hamiltonian matrix for VNA+dVH+Vxc...
<VQE>  Solving the eigenvalue problem...
vqe time elapsed: 0m 1s

    1    H  MulP   0.5767  0.5767 sum   1.1533
    2    H  MulP   0.4227  0.4227 sum   0.8455
    3    H  MulP   0.5644  0.5644 sum   1.1288
    4    H  MulP   0.4362  0.4362 sum   0.8724
 Sum of MulP: up   =     2.00000 down          =     2.00000
              total=     4.00000 ideal(neutral)=     4.00000
<DFT>  Total Spin Moment (muB) =  0.000000000000
<DFT>  Mixing_weight= 0.002830623476
<DFT>  Uele   =   -1.501928520516  dUele     =   0.000001211441
<DFT>  NormRD =    0.105406263723  Criterion =   0.000000036749

******************* MD= 1  SCF=26 *******************
<Poisson>  Poisson's equation using FFT...
<Set_Hamiltonian>  Hamiltonian matrix for VNA+dVH+Vxc...
<VQE>  Solving the eigenvalue problem...
vqe time elapsed: 0m 0s

    1    H  MulP   0.5767  0.5767 sum   1.1533
    2    H  MulP   0.4227  0.4227 sum   0.8455
    3    H  MulP   0.5644  0.5644 sum   1.1288
    4    H  MulP   0.4362  0.4362 sum   0.8724
 Sum of MulP: up   =     2.00000 down          =     2.00000
              total=     4.00000 ideal(neutral)=     4.00000
<DFT>  Total Spin Moment (muB) =  0.000000000000
<DFT>  Mixing_weight= 0.002830623476
<DFT>  Uele   =   -1.501930326775  dUele     =   0.000001806259
<DFT>  NormRD =    0.112878142114  Criterion =   0.000000036749

******************* MD= 1  SCF=27 *******************
<Poisson>  Poisson's equation using FFT...
<Set_Hamiltonian>  Hamiltonian matrix for VNA+dVH+Vxc...
<VQE>  Solving the eigenvalue problem...
vqe time elapsed: 0m 1s

    1    H  MulP   0.5766  0.5766 sum   1.1532
    2    H  MulP   0.4228  0.4228 sum   0.8456
    3    H  MulP   0.5643  0.5643 sum   1.1287
    4    H  MulP   0.4363  0.4363 sum   0.8725
 Sum of MulP: up   =     2.00000 down          =     2.00000
              total=     4.00000 ideal(neutral)=     4.00000
<DFT>  Total Spin Moment (muB) =  0.000000000000
<DFT>  Mixing_weight= 0.002830623476
<DFT>  Uele   =   -1.501931626351  dUele     =   0.000001299576
<DFT>  NormRD =    0.117684494452  Criterion =   0.000000036749

******************* MD= 1  SCF=28 *******************
<Poisson>  Poisson's equation using FFT...
<Set_Hamiltonian>  Hamiltonian matrix for VNA+dVH+Vxc...
<VQE>  Solving the eigenvalue problem...
vqe time elapsed: 0m 2s

    1    H  MulP   0.5768  0.5768 sum   1.1536
    2    H  MulP   0.4226  0.4226 sum   0.8453
    3    H  MulP   0.5646  0.5646 sum   1.1292
    4    H  MulP   0.4360  0.4360 sum   0.8719
 Sum of MulP: up   =     2.00000 down          =     2.00000
              total=     4.00000 ideal(neutral)=     4.00000
<DFT>  Total Spin Moment (muB) =  0.000000000000
<DFT>  Mixing_weight= 0.002830623476
<DFT>  Uele   =   -1.501893487837  dUele     =   0.000038138514
<DFT>  NormRD =    0.002629976720  Criterion =   0.000000036749

******************* MD= 1  SCF=29 *******************
<Poisson>  Poisson's equation using FFT...
<Set_Hamiltonian>  Hamiltonian matrix for VNA+dVH+Vxc...
<VQE>  Solving the eigenvalue problem...
vqe time elapsed: 0m 1s

    1    H  MulP   0.5766  0.5766 sum   1.1533
    2    H  MulP   0.4228  0.4228 sum   0.8456
    3    H  MulP   0.5645  0.5645 sum   1.1291
    4    H  MulP   0.4360  0.4360 sum   0.8721
 Sum of MulP: up   =     2.00000 down          =     2.00000
              total=     4.00000 ideal(neutral)=     4.00000
<DFT>  Total Spin Moment (muB) =  0.000000000000
<DFT>  Mixing_weight= 0.002830623476
<DFT>  Uele   =   -1.501895296111  dUele     =   0.000001808274
<DFT>  NormRD =    0.002700925332  Criterion =   0.000000036749

******************* MD= 1  SCF=30 *******************
<Poisson>  Poisson's equation using FFT...
<Set_Hamiltonian>  Hamiltonian matrix for VNA+dVH+Vxc...
<VQE>  Solving the eigenvalue problem...
vqe time elapsed: 0m 1s

    1    H  MulP   0.5768  0.5768 sum   1.1535
    2    H  MulP   0.4227  0.4227 sum   0.8454
    3    H  MulP   0.5646  0.5646 sum   1.1293
    4    H  MulP   0.4359  0.4359 sum   0.8718
 Sum of MulP: up   =     2.00000 down          =     2.00000
              total=     4.00000 ideal(neutral)=     4.00000
<DFT>  Total Spin Moment (muB) =  0.000000000000
<DFT>  Mixing_weight= 0.002830623476
<DFT>  Uele   =   -1.501899185015  dUele     =   0.000003888904
<DFT>  NormRD =    0.003502445335  Criterion =   0.000000036749

******************* MD= 1  SCF=31 *******************
<Poisson>  Poisson's equation using FFT...
<Set_Hamiltonian>  Hamiltonian matrix for VNA+dVH+Vxc...
<VQE>  Solving the eigenvalue problem...
vqe time elapsed: 0m 1s

    1    H  MulP   0.5766  0.5766 sum   1.1533
    2    H  MulP   0.4228  0.4228 sum   0.8456
    3    H  MulP   0.5646  0.5646 sum   1.1291
    4    H  MulP   0.4360  0.4360 sum   0.8720
 Sum of MulP: up   =     2.00000 down          =     2.00000
              total=     4.00000 ideal(neutral)=     4.00000
<DFT>  Total Spin Moment (muB) =  0.000000000000
<DFT>  Mixing_weight= 0.002830623476
<DFT>  Uele   =   -1.501891906166  dUele     =   0.000007278849
<DFT>  NormRD =    0.002397381187  Criterion =   0.000000036749

******************* MD= 1  SCF=32 *******************
<Poisson>  Poisson's equation using FFT...
<Set_Hamiltonian>  Hamiltonian matrix for VNA+dVH+Vxc...
<VQE>  Solving the eigenvalue problem...
vqe time elapsed: 0m 1s

    1    H  MulP   0.5768  0.5768 sum   1.1535
    2    H  MulP   0.4227  0.4227 sum   0.8454
    3    H  MulP   0.5647  0.5647 sum   1.1294
    4    H  MulP   0.4359  0.4359 sum   0.8717
 Sum of MulP: up   =     2.00000 down          =     2.00000
              total=     4.00000 ideal(neutral)=     4.00000
<DFT>  Total Spin Moment (muB) =  0.000000000000
<DFT>  Mixing_weight= 0.002830623476
<DFT>  Uele   =   -1.501879556428  dUele     =   0.000012349738
<DFT>  NormRD =    0.000269137850  Criterion =   0.000000036749

******************* MD= 1  SCF=33 *******************
<Poisson>  Poisson's equation using FFT...
<Set_Hamiltonian>  Hamiltonian matrix for VNA+dVH+Vxc...
<VQE>  Solving the eigenvalue problem...
vqe time elapsed: 0m 5s

    1    H  MulP   0.5800  0.5800 sum   1.1600
    2    H  MulP   0.4194  0.4194 sum   0.8389
    3    H  MulP   0.5680  0.5680 sum   1.1361
    4    H  MulP   0.4325  0.4325 sum   0.8651
 Sum of MulP: up   =     2.00000 down          =     2.00000
              total=     4.00000 ideal(neutral)=     4.00000
<DFT>  Total Spin Moment (muB) =  0.000000000000
<DFT>  Mixing_weight= 0.002830623476
<DFT>  Uele   =   -1.501882864043  dUele     =   0.000003307615
<DFT>  NormRD =    0.121590724477  Criterion =   0.000000036749

******************* MD= 1  SCF=34 *******************
<Poisson>  Poisson's equation using FFT...
<Set_Hamiltonian>  Hamiltonian matrix for VNA+dVH+Vxc...
<VQE>  Solving the eigenvalue problem...
vqe time elapsed: 0m 0s

    1    H  MulP   0.5800  0.5800 sum   1.1600
    2    H  MulP   0.4194  0.4194 sum   0.8389
    3    H  MulP   0.5680  0.5680 sum   1.1361
    4    H  MulP   0.4325  0.4325 sum   0.8651
 Sum of MulP: up   =     2.00000 down          =     2.00000
              total=     4.00000 ideal(neutral)=     4.00000
<DFT>  Total Spin Moment (muB) =  0.000000000000
<DFT>  Mixing_weight= 0.002830623476
<DFT>  Uele   =   -1.501882688339  dUele     =   0.000000175703
<DFT>  NormRD =    0.121427130566  Criterion =   0.000000036749

******************* MD= 1  SCF=35 *******************
<Poisson>  Poisson's equation using FFT...
<Set_Hamiltonian>  Hamiltonian matrix for VNA+dVH+Vxc...
<VQE>  Solving the eigenvalue problem...
vqe time elapsed: 0m 0s

    1    H  MulP   0.5800  0.5800 sum   1.1600
    2    H  MulP   0.4194  0.4194 sum   0.8389
    3    H  MulP   0.5680  0.5680 sum   1.1361
    4    H  MulP   0.4325  0.4325 sum   0.8651
 Sum of MulP: up   =     2.00000 down          =     2.00000
              total=     4.00000 ideal(neutral)=     4.00000
<DFT>  Total Spin Moment (muB) =  0.000000000000
<DFT>  Mixing_weight= 0.002830623476
<DFT>  Uele   =   -1.501885672404  dUele     =   0.000002984064
<DFT>  NormRD =    0.121881302236  Criterion =   0.000000036749

******************* MD= 1  SCF=36 *******************
<Poisson>  Poisson's equation using FFT...
<Set_Hamiltonian>  Hamiltonian matrix for VNA+dVH+Vxc...
<VQE>  Solving the eigenvalue problem...
vqe time elapsed: 0m 0s

    1    H  MulP   0.5800  0.5800 sum   1.1600
    2    H  MulP   0.4194  0.4194 sum   0.8389
    3    H  MulP   0.5680  0.5680 sum   1.1361
    4    H  MulP   0.4325  0.4325 sum   0.8651
 Sum of MulP: up   =     2.00000 down          =     2.00000
              total=     4.00000 ideal(neutral)=     4.00000
<DFT>  Total Spin Moment (muB) =  0.000000000000
<DFT>  Mixing_weight= 0.002830623476
<DFT>  Uele   =   -1.501884600720  dUele     =   0.000001071684
<DFT>  NormRD =    0.118951768294  Criterion =   0.000000036749

******************* MD= 1  SCF=37 *******************
<Poisson>  Poisson's equation using FFT...
<Set_Hamiltonian>  Hamiltonian matrix for VNA+dVH+Vxc...
<VQE>  Solving the eigenvalue problem...
vqe time elapsed: 0m 0s

    1    H  MulP   0.5800  0.5800 sum   1.1600
    2    H  MulP   0.4194  0.4194 sum   0.8389
    3    H  MulP   0.5680  0.5680 sum   1.1361
    4    H  MulP   0.4325  0.4325 sum   0.8651
 Sum of MulP: up   =     2.00000 down          =     2.00000
              total=     4.00000 ideal(neutral)=     4.00000
<DFT>  Total Spin Moment (muB) =  0.000000000000
<DFT>  Mixing_weight= 0.002830623476
<DFT>  Uele   =   -1.501887944457  dUele     =   0.000003343737
<DFT>  NormRD =    0.125572505740  Criterion =   0.000000036749

******************* MD= 1  SCF=38 *******************
<Poisson>  Poisson's equation using FFT...
<Set_Hamiltonian>  Hamiltonian matrix for VNA+dVH+Vxc...
<VQE>  Solving the eigenvalue problem...
vqe time elapsed: 0m 7s

    1    H  MulP   0.5836  0.5836 sum   1.1673
    2    H  MulP   0.4158  0.4158 sum   0.8317
    3    H  MulP   0.5720  0.5720 sum   1.1441
    4    H  MulP   0.4285  0.4285 sum   0.8570
 Sum of MulP: up   =     2.00000 down          =     2.00000
              total=     4.00000 ideal(neutral)=     4.00000
<DFT>  Total Spin Moment (muB) =  0.000000000000
<DFT>  Mixing_weight= 0.002830623476
<DFT>  Uele   =   -1.501825460672  dUele     =   0.000062483785
<DFT>  NormRD =    0.133737750689  Criterion =   0.000000036749

******************* MD= 1  SCF=39 *******************
<Poisson>  Poisson's equation using FFT...
<Set_Hamiltonian>  Hamiltonian matrix for VNA+dVH+Vxc...
<VQE>  Solving the eigenvalue problem...
vqe time elapsed: 0m 1s

    1    H  MulP   0.5837  0.5837 sum   1.1674
    2    H  MulP   0.4158  0.4158 sum   0.8316
    3    H  MulP   0.5721  0.5721 sum   1.1442
    4    H  MulP   0.4284  0.4284 sum   0.8568
 Sum of MulP: up   =     2.00000 down          =     2.00000
              total=     4.00000 ideal(neutral)=     4.00000
<DFT>  Total Spin Moment (muB) =  0.000000000000
<DFT>  Mixing_weight= 0.002830623476
<DFT>  Uele   =   -1.501806335299  dUele     =   0.000019125373
<DFT>  NormRD =    0.102926188138  Criterion =   0.000000036749

******************* MD= 1  SCF=40 *******************
<Poisson>  Poisson's equation using FFT...
<Set_Hamiltonian>  Hamiltonian matrix for VNA+dVH+Vxc...
<VQE>  Solving the eigenvalue problem...
vqe time elapsed: 0m 1s

    1    H  MulP   0.5838  0.5838 sum   1.1675
    2    H  MulP   0.4157  0.4157 sum   0.8314
    3    H  MulP   0.5723  0.5723 sum   1.1445
    4    H  MulP   0.4283  0.4283 sum   0.8565
 Sum of MulP: up   =     2.00000 down          =     2.00000
              total=     4.00000 ideal(neutral)=     4.00000
<DFT>  Total Spin Moment (muB) =  0.000000000000
<DFT>  Mixing_weight= 0.002830623476
<DFT>  Uele   =   -1.501790039666  dUele     =   0.000016295633
<DFT>  NormRD =    0.060950138542  Criterion =   0.000000036749

******************* MD= 1  SCF=41 *******************
<Poisson>  Poisson's equation using FFT...
<Set_Hamiltonian>  Hamiltonian matrix for VNA+dVH+Vxc...
<VQE>  Solving the eigenvalue problem...
vqe time elapsed: 0m 5s

    1    H  MulP   0.5881  0.5881 sum   1.1763
    2    H  MulP   0.4113  0.4113 sum   0.8227
    3    H  MulP   0.5768  0.5768 sum   1.1537
    4    H  MulP   0.4237  0.4237 sum   0.8474
 Sum of MulP: up   =     2.00000 down          =     2.00000
              total=     4.00000 ideal(neutral)=     4.00000
<DFT>  Total Spin Moment (muB) =  0.000000000000
<DFT>  Mixing_weight= 0.002830623476
<DFT>  Uele   =   -1.501771623661  dUele     =   0.000018416005
<DFT>  NormRD =    0.156170582329  Criterion =   0.000000036749

******************* MD= 1  SCF=42 *******************
<Poisson>  Poisson's equation using FFT...
<Set_Hamiltonian>  Hamiltonian matrix for VNA+dVH+Vxc...
<VQE>  Solving the eigenvalue problem...
vqe time elapsed: 0m 0s

    1    H  MulP   0.5881  0.5881 sum   1.1763
    2    H  MulP   0.4113  0.4113 sum   0.8227
    3    H  MulP   0.5768  0.5768 sum   1.1537
    4    H  MulP   0.4237  0.4237 sum   0.8474
 Sum of MulP: up   =     2.00000 down          =     2.00000
              total=     4.00000 ideal(neutral)=     4.00000
<DFT>  Total Spin Moment (muB) =  0.000000000000
<DFT>  Mixing_weight= 0.002830623476
<DFT>  Uele   =   -1.501775105842  dUele     =   0.000003482181
<DFT>  NormRD =    0.164456744503  Criterion =   0.000000036749

******************* MD= 1  SCF=43 *******************
<Poisson>  Poisson's equation using FFT...
<Set_Hamiltonian>  Hamiltonian matrix for VNA+dVH+Vxc...
<VQE>  Solving the eigenvalue problem...
vqe time elapsed: 0m 1s

    1    H  MulP   0.5881  0.5881 sum   1.1762
    2    H  MulP   0.4114  0.4114 sum   0.8227
    3    H  MulP   0.5768  0.5768 sum   1.1536
    4    H  MulP   0.4237  0.4237 sum   0.8474
 Sum of MulP: up   =     2.00000 down          =     2.00000
              total=     4.00000 ideal(neutral)=     4.00000
<DFT>  Total Spin Moment (muB) =  0.000000000000
<DFT>  Mixing_weight= 0.002830623476
<DFT>  Uele   =   -1.501778791168  dUele     =   0.000003685327
<DFT>  NormRD =    0.171498228695  Criterion =   0.000000036749

******************* MD= 1  SCF=44 *******************
<Poisson>  Poisson's equation using FFT...
<Set_Hamiltonian>  Hamiltonian matrix for VNA+dVH+Vxc...
<VQE>  Solving the eigenvalue problem...
vqe time elapsed: 0m 1s

    1    H  MulP   0.5881  0.5881 sum   1.1762
    2    H  MulP   0.4114  0.4114 sum   0.8228
    3    H  MulP   0.5768  0.5768 sum   1.1536
    4    H  MulP   0.4237  0.4237 sum   0.8475
 Sum of MulP: up   =     2.00000 down          =     2.00000
              total=     4.00000 ideal(neutral)=     4.00000
<DFT>  Total Spin Moment (muB) =  0.000000000000
<DFT>  Mixing_weight= 0.002830623476
<DFT>  Uele   =   -1.501780110747  dUele     =   0.000001319578
<DFT>  NormRD =    0.186372778464  Criterion =   0.000000036749

******************* MD= 1  SCF=45 *******************
<Poisson>  Poisson's equation using FFT...
<Set_Hamiltonian>  Hamiltonian matrix for VNA+dVH+Vxc...
<VQE>  Solving the eigenvalue problem...
vqe time elapsed: 0m 0s

    1    H  MulP   0.5881  0.5881 sum   1.1762
    2    H  MulP   0.4114  0.4114 sum   0.8228
    3    H  MulP   0.5768  0.5768 sum   1.1536
    4    H  MulP   0.4237  0.4237 sum   0.8475
 Sum of MulP: up   =     2.00000 down          =     2.00000
              total=     4.00000 ideal(neutral)=     4.00000
<DFT>  Total Spin Moment (muB) =  0.000000000000
<DFT>  Mixing_weight= 0.002830623476
<DFT>  Uele   =   -1.501779055068  dUele     =   0.000001055678
<DFT>  NormRD =    0.186698503252  Criterion =   0.000000036749

******************* MD= 1  SCF=46 *******************
<Poisson>  Poisson's equation using FFT...
<Set_Hamiltonian>  Hamiltonian matrix for VNA+dVH+Vxc...
<VQE>  Solving the eigenvalue problem...
vqe time elapsed: 0m 7s

    1    H  MulP   0.5929  0.5929 sum   1.1858
    2    H  MulP   0.4066  0.4066 sum   0.8133
    3    H  MulP   0.5822  0.5822 sum   1.1644
    4    H  MulP   0.4182  0.4182 sum   0.8365
 Sum of MulP: up   =     2.00000 down          =     2.00000
              total=     4.00000 ideal(neutral)=     4.00000
<DFT>  Total Spin Moment (muB) =  0.000000000000
<DFT>  Mixing_weight= 0.002830623476
<DFT>  Uele   =   -1.501688016128  dUele     =   0.000091038940
<DFT>  NormRD =    0.178981415698  Criterion =   0.000000036749

******************* MD= 1  SCF=47 *******************
<Poisson>  Poisson's equation using FFT...
<Set_Hamiltonian>  Hamiltonian matrix for VNA+dVH+Vxc...
<VQE>  Solving the eigenvalue problem...
vqe time elapsed: 0m 7s

    1    H  MulP   0.5857  0.5857 sum   1.1714
    2    H  MulP   0.4138  0.4138 sum   0.8276
    3    H  MulP   0.5743  0.5743 sum   1.1486
    4    H  MulP   0.4262  0.4262 sum   0.8524
 Sum of MulP: up   =     2.00000 down          =     2.00000
              total=     4.00000 ideal(neutral)=     4.00000
<DFT>  Total Spin Moment (muB) =  0.000000000000
<DFT>  Mixing_weight= 0.002830623476
<DFT>  Uele   =   -1.501798721856  dUele     =   0.000110705727
<DFT>  NormRD =    0.141498550871  Criterion =   0.000000036749

******************* MD= 1  SCF=48 *******************
<Poisson>  Poisson's equation using FFT...
<Set_Hamiltonian>  Hamiltonian matrix for VNA+dVH+Vxc...
<VQE>  Solving the eigenvalue problem...
vqe time elapsed: 0m 6s

    1    H  MulP   0.5942  0.5942 sum   1.1884
    2    H  MulP   0.4053  0.4053 sum   0.8107
    3    H  MulP   0.5834  0.5834 sum   1.1668
    4    H  MulP   0.4171  0.4171 sum   0.8341
 Sum of MulP: up   =     2.00000 down          =     2.00000
              total=     4.00000 ideal(neutral)=     4.00000
<DFT>  Total Spin Moment (muB) =  0.000000000000
<DFT>  Mixing_weight= 0.002830623476
<DFT>  Uele   =   -1.501659698870  dUele     =   0.000139022986
<DFT>  NormRD =    0.183615365853  Criterion =   0.000000036749

******************* MD= 1  SCF=49 *******************
<Poisson>  Poisson's equation using FFT...
<Set_Hamiltonian>  Hamiltonian matrix for VNA+dVH+Vxc...
<VQE>  Solving the eigenvalue problem...
vqe time elapsed: 0m 7s

    1    H  MulP   0.5496  0.5496 sum   1.0992
    2    H  MulP   0.4498  0.4498 sum   0.8997
    3    H  MulP   0.5350  0.5350 sum   1.0700
    4    H  MulP   0.4656  0.4656 sum   0.9311
 Sum of MulP: up   =     2.00000 down          =     2.00000
              total=     4.00000 ideal(neutral)=     4.00000
<DFT>  Total Spin Moment (muB) =  0.000000000000
<DFT>  Mixing_weight= 0.002830623476
<DFT>  Uele   =   -1.501730421733  dUele     =   0.000070722863
<DFT>  NormRD =    0.114862912742  Criterion =   0.000000036749

******************* MD= 1  SCF=50 *******************
<Poisson>  Poisson's equation using FFT...
<Set_Hamiltonian>  Hamiltonian matrix for VNA+dVH+Vxc...
<VQE>  Solving the eigenvalue problem...
vqe time elapsed: 0m 7s

    1    H  MulP   0.6233  0.6233 sum   1.2467
    2    H  MulP   0.3770  0.3770 sum   0.7539
    3    H  MulP   0.6155  0.6155 sum   1.2310
    4    H  MulP   0.3842  0.3842 sum   0.7684
 Sum of MulP: up   =     2.00000 down          =     2.00000
              total=     4.00000 ideal(neutral)=     4.00000
<DFT>  Total Spin Moment (muB) =  0.000000000000
<DFT>  Mixing_weight= 0.002830623476
<DFT>  Uele   =   -1.500861399330  dUele     =   0.000869022403
<DFT>  NormRD =    0.341266882258  Criterion =   0.000000036749

******************* MD= 1  SCF=51 *******************
<Poisson>  Poisson's equation using FFT...
<Set_Hamiltonian>  Hamiltonian matrix for VNA+dVH+Vxc...
<VQE>  Solving the eigenvalue problem...
vqe time elapsed: 0m 8s

    1    H  MulP   0.5485  0.5485 sum   1.0970
    2    H  MulP   0.4510  0.4510 sum   0.9019
    3    H  MulP   0.5338  0.5338 sum   1.0676
    4    H  MulP   0.4667  0.4667 sum   0.9335
 Sum of MulP: up   =     2.00000 down          =     2.00000
              total=     4.00000 ideal(neutral)=     4.00000
<DFT>  Total Spin Moment (muB) =  0.000000000000
<DFT>  Mixing_weight= 0.002830623476
<DFT>  Uele   =   -1.501794373227  dUele     =   0.000932973897
<DFT>  NormRD =    0.110044510943  Criterion =   0.000000036749

******************* MD= 1  SCF=52 *******************
<Poisson>  Poisson's equation using FFT...
<Set_Hamiltonian>  Hamiltonian matrix for VNA+dVH+Vxc...
<VQE>  Solving the eigenvalue problem...
vqe time elapsed: 0m 2s

    1    H  MulP   0.5483  0.5483 sum   1.0967
    2    H  MulP   0.4511  0.4511 sum   0.9022
    3    H  MulP   0.5335  0.5335 sum   1.0671
    4    H  MulP   0.4670  0.4670 sum   0.9340
 Sum of MulP: up   =     2.00000 down          =     2.00000
              total=     4.00000 ideal(neutral)=     4.00000
<DFT>  Total Spin Moment (muB) =  0.000000000000
<DFT>  Mixing_weight= 0.002830623476
<DFT>  Uele   =   -1.501826316797  dUele     =   0.000031943571
<DFT>  NormRD =    0.159943056418  Criterion =   0.000000036749

******************* MD= 1  SCF=53 *******************
<Poisson>  Poisson's equation using FFT...
<Set_Hamiltonian>  Hamiltonian matrix for VNA+dVH+Vxc...
<VQE>  Solving the eigenvalue problem...
vqe time elapsed: 0m 8s

    1    H  MulP   0.4969  0.4969 sum   0.9938
    2    H  MulP   0.5033  0.5033 sum   1.0066
    3    H  MulP   0.4787  0.4787 sum   0.9573
    4    H  MulP   0.5211  0.5211 sum   1.0422
 Sum of MulP: up   =     2.00000 down          =     2.00000
              total=     4.00000 ideal(neutral)=     4.00000
<DFT>  Total Spin Moment (muB) =  0.000000000000
<DFT>  Mixing_weight= 0.002830623476
<DFT>  Uele   =   -1.500209917221  dUele     =   0.001616399576
<DFT>  NormRD =    0.531163293246  Criterion =   0.000000036749

******************* MD= 1  SCF=54 *******************
<Poisson>  Poisson's equation using FFT...
<Set_Hamiltonian>  Hamiltonian matrix for VNA+dVH+Vxc...
<VQE>  Solving the eigenvalue problem...
vqe time elapsed: 0m 8s

    1    H  MulP   0.5622  0.5622 sum   1.1244
    2    H  MulP   0.4372  0.4372 sum   0.8743
    3    H  MulP   0.5485  0.5485 sum   1.0971
    4    H  MulP   0.4521  0.4521 sum   0.9042
 Sum of MulP: up   =     2.00000 down          =     2.00000
              total=     4.00000 ideal(neutral)=     4.00000
<DFT>  Total Spin Moment (muB) =  0.000000000000
<DFT>  Mixing_weight= 0.002830623476
<DFT>  Uele   =   -1.501900613380  dUele     =   0.001690696159
<DFT>  NormRD =    0.083789473748  Criterion =   0.000000036749

******************* MD= 1  SCF=55 *******************
<Poisson>  Poisson's equation using FFT...
<Set_Hamiltonian>  Hamiltonian matrix for VNA+dVH+Vxc...
<VQE>  Solving the eigenvalue problem...
vqe time elapsed: 0m 7s

    1    H  MulP   0.5825  0.5825 sum   1.1650
    2    H  MulP   0.4169  0.4169 sum   0.8338
    3    H  MulP   0.5708  0.5708 sum   1.1416
    4    H  MulP   0.4298  0.4298 sum   0.8596
 Sum of MulP: up   =     2.00000 down          =     2.00000
              total=     4.00000 ideal(neutral)=     4.00000
<DFT>  Total Spin Moment (muB) =  0.000000000000
<DFT>  Mixing_weight= 0.002830623476
<DFT>  Uele   =   -1.501736295658  dUele     =   0.000164317721
<DFT>  NormRD =    0.129783123870  Criterion =   0.000000036749

******************* MD= 1  SCF=56 *******************
<Poisson>  Poisson's equation using FFT...
<Set_Hamiltonian>  Hamiltonian matrix for VNA+dVH+Vxc...
<VQE>  Solving the eigenvalue problem...
vqe time elapsed: 0m 7s

    1    H  MulP   0.5901  0.5901 sum   1.1801
    2    H  MulP   0.4094  0.4094 sum   0.8189
    3    H  MulP   0.5790  0.5790 sum   1.1580
    4    H  MulP   0.4215  0.4215 sum   0.8429
 Sum of MulP: up   =     2.00000 down          =     2.00000
              total=     4.00000 ideal(neutral)=     4.00000
<DFT>  Total Spin Moment (muB) =  0.000000000000
<DFT>  Mixing_weight= 0.002830623476
<DFT>  Uele   =   -1.501594042842  dUele     =   0.000142252817
<DFT>  NormRD =    0.160093883662  Criterion =   0.000000036749

******************* MD= 1  SCF=57 *******************
<Poisson>  Poisson's equation using FFT...
<Set_Hamiltonian>  Hamiltonian matrix for VNA+dVH+Vxc...
<VQE>  Solving the eigenvalue problem...
vqe time elapsed: 0m 8s

    1    H  MulP   0.5494  0.5494 sum   1.0988
    2    H  MulP   0.4501  0.4501 sum   0.9001
    3    H  MulP   0.5347  0.5347 sum   1.0695
    4    H  MulP   0.4658  0.4658 sum   0.9316
 Sum of MulP: up   =     2.00000 down          =     2.00000
              total=     4.00000 ideal(neutral)=     4.00000
<DFT>  Total Spin Moment (muB) =  0.000000000000
<DFT>  Mixing_weight= 0.002830623476
<DFT>  Uele   =   -1.501903363789  dUele     =   0.000309320947
<DFT>  NormRD =    0.089279489676  Criterion =   0.000000036749

******************* MD= 1  SCF=58 *******************
<Poisson>  Poisson's equation using FFT...
<Set_Hamiltonian>  Hamiltonian matrix for VNA+dVH+Vxc...
<VQE>  Solving the eigenvalue problem...
vqe time elapsed: 0m 1s

    1    H  MulP   0.5494  0.5494 sum   1.0987
    2    H  MulP   0.4501  0.4501 sum   0.9002
    3    H  MulP   0.5347  0.5347 sum   1.0694
    4    H  MulP   0.4659  0.4659 sum   0.9317
 Sum of MulP: up   =     2.00000 down          =     2.00000
              total=     4.00000 ideal(neutral)=     4.00000
<DFT>  Total Spin Moment (muB) =  0.000000000000
<DFT>  Mixing_weight= 0.002830623476
<DFT>  Uele   =   -1.501906888182  dUele     =   0.000003524393
<DFT>  NormRD =    0.098761096274  Criterion =   0.000000036749

******************* MD= 1  SCF=59 *******************
<Poisson>  Poisson's equation using FFT...
<Set_Hamiltonian>  Hamiltonian matrix for VNA+dVH+Vxc...
<VQE>  Solving the eigenvalue problem...
vqe time elapsed: 0m 7s

    1    H  MulP   0.5609  0.5609 sum   1.1219
    2    H  MulP   0.4385  0.4385 sum   0.8769
    3    H  MulP   0.5472  0.5472 sum   1.0944
    4    H  MulP   0.4534  0.4534 sum   0.9068
 Sum of MulP: up   =     2.00000 down          =     2.00000
              total=     4.00000 ideal(neutral)=     4.00000
<DFT>  Total Spin Moment (muB) =  0.000000000000
<DFT>  Mixing_weight= 0.002830623476
<DFT>  Uele   =   -1.501890973249  dUele     =   0.000015914933
<DFT>  NormRD =    0.081772911667  Criterion =   0.000000036749

******************* MD= 1  SCF=60 *******************
<Poisson>  Poisson's equation using FFT...
<Set_Hamiltonian>  Hamiltonian matrix for VNA+dVH+Vxc...
<VQE>  Solving the eigenvalue problem...
vqe time elapsed: 0m 7s

    1    H  MulP   0.5470  0.5470 sum   1.0939
    2    H  MulP   0.4525  0.4525 sum   0.9050
    3    H  MulP   0.5320  0.5320 sum   1.0641
    4    H  MulP   0.4685  0.4685 sum   0.9370
 Sum of MulP: up   =     2.00000 down          =     2.00000
              total=     4.00000 ideal(neutral)=     4.00000
<DFT>  Total Spin Moment (muB) =  0.000000000000
<DFT>  Mixing_weight= 0.002830623476
<DFT>  Uele   =   -1.501825836704  dUele     =   0.000065136545
<DFT>  NormRD =    0.110675783233  Criterion =   0.000000036749

******************* MD= 1  SCF=61 *******************
<Poisson>  Poisson's equation using FFT...
<Set_Hamiltonian>  Hamiltonian matrix for VNA+dVH+Vxc...
<VQE>  Solving the eigenvalue problem...
vqe time elapsed: 0m 8s

    1    H  MulP   0.3622  0.3622 sum   0.7244
    2    H  MulP   0.6373  0.6373 sum   1.2747
    3    H  MulP   0.3599  0.3599 sum   0.7198
    4    H  MulP   0.6406  0.6406 sum   1.2811
 Sum of MulP: up   =     2.00000 down          =     2.00000
              total=     4.00000 ideal(neutral)=     4.00000
<DFT>  Total Spin Moment (muB) =  0.000000000000
<DFT>  Mixing_weight= 0.002830623476
<DFT>  Uele   =   -1.481692913663  dUele     =   0.020132923041
<DFT>  NormRD =    3.172139475833  Criterion =   0.000000036749

******************* MD= 1  SCF=62 *******************
<Poisson>  Poisson's equation using FFT...
<Set_Hamiltonian>  Hamiltonian matrix for VNA+dVH+Vxc...
<VQE>  Solving the eigenvalue problem...
vqe time elapsed: 0m 10s

    1    H  MulP   0.4651  0.4651 sum   0.9302
    2    H  MulP   0.5357  0.5357 sum   1.0713
    3    H  MulP   0.4476  0.4476 sum   0.8953
    4    H  MulP   0.5516  0.5516 sum   1.1032
 Sum of MulP: up   =     2.00000 down          =     2.00000
              total=     4.00000 ideal(neutral)=     4.00000
<DFT>  Total Spin Moment (muB) =  0.000000000000
<DFT>  Mixing_weight= 0.002830623476
<DFT>  Uele   =   -1.499279142240  dUele     =   0.017586228576
<DFT>  NormRD =    0.680145895888  Criterion =   0.000000036749

******************* MD= 1  SCF=63 *******************
<Poisson>  Poisson's equation using FFT...
<Set_Hamiltonian>  Hamiltonian matrix for VNA+dVH+Vxc...
<VQE>  Solving the eigenvalue problem...
vqe time elapsed: 0m 9s

    1    H  MulP   0.5453  0.5453 sum   1.0906
    2    H  MulP   0.4542  0.4542 sum   0.9083
    3    H  MulP   0.5301  0.5301 sum   1.0603
    4    H  MulP   0.4704  0.4704 sum   0.9408
 Sum of MulP: up   =     2.00000 down          =     2.00000
              total=     4.00000 ideal(neutral)=     4.00000
<DFT>  Total Spin Moment (muB) =  0.000000000000
<DFT>  Mixing_weight= 0.002830623476
<DFT>  Uele   =   -1.501637545194  dUele     =   0.002358402955
<DFT>  NormRD =    0.158339976381  Criterion =   0.000000036749

******************* MD= 1  SCF=64 *******************
<Poisson>  Poisson's equation using FFT...
<Set_Hamiltonian>  Hamiltonian matrix for VNA+dVH+Vxc...
<VQE>  Solving the eigenvalue problem...
vqe time elapsed: 0m 8s

    1    H  MulP   0.5922  0.5922 sum   1.1845
    2    H  MulP   0.4072  0.4072 sum   0.8144
    3    H  MulP   0.5811  0.5811 sum   1.1622
    4    H  MulP   0.4195  0.4195 sum   0.8389
 Sum of MulP: up   =     2.00000 down          =     2.00000
              total=     4.00000 ideal(neutral)=     4.00000
<DFT>  Total Spin Moment (muB) =  0.000000000000
<DFT>  Mixing_weight= 0.002830623476
<DFT>  Uele   =   -1.500483967897  dUele     =   0.001153577297
<DFT>  NormRD =    0.320982652769  Criterion =   0.000000036749

******************* MD= 1  SCF=65 *******************
<Poisson>  Poisson's equation using FFT...
<Set_Hamiltonian>  Hamiltonian matrix for VNA+dVH+Vxc...
<VQE>  Solving the eigenvalue problem...
vqe time elapsed: 0m 8s

    1    H  MulP   0.5756  0.5756 sum   1.1512
    2    H  MulP   0.4237  0.4237 sum   0.8475
    3    H  MulP   0.5628  0.5628 sum   1.1256
    4    H  MulP   0.4379  0.4379 sum   0.8758
 Sum of MulP: up   =     2.00000 down          =     2.00000
              total=     4.00000 ideal(neutral)=     4.00000
<DFT>  Total Spin Moment (muB) =  0.000000000000
<DFT>  Mixing_weight= 0.002830623476
<DFT>  Uele   =   -1.500979766961  dUele     =   0.000495799064
<DFT>  NormRD =    0.248290337093  Criterion =   0.000000036749

******************* MD= 1  SCF=66 *******************
<Poisson>  Poisson's equation using FFT...
<Set_Hamiltonian>  Hamiltonian matrix for VNA+dVH+Vxc...
<VQE>  Solving the eigenvalue problem...
vqe time elapsed: 0m 7s

    1    H  MulP   0.6206  0.6206 sum   1.2411
    2    H  MulP   0.3795  0.3795 sum   0.7591
    3    H  MulP   0.6126  0.6126 sum   1.2252
    4    H  MulP   0.3873  0.3873 sum   0.7746
 Sum of MulP: up   =     2.00000 down          =     2.00000
              total=     4.00000 ideal(neutral)=     4.00000
<DFT>  Total Spin Moment (muB) =  0.000000000000
<DFT>  Mixing_weight= 0.002830623476
<DFT>  Uele   =   -1.499379407162  dUele     =   0.001600359799
<DFT>  NormRD =    0.498869268008  Criterion =   0.000000036749

******************* MD= 1  SCF=67 *******************
<Poisson>  Poisson's equation using FFT...
<Set_Hamiltonian>  Hamiltonian matrix for VNA+dVH+Vxc...
<VQE>  Solving the eigenvalue problem...
vqe time elapsed: 0m 7s

    1    H  MulP   0.5682  0.5682 sum   1.1364
    2    H  MulP   0.4311  0.4311 sum   0.8622
    3    H  MulP   0.5548  0.5548 sum   1.1096
    4    H  MulP   0.4459  0.4459 sum   0.8919
 Sum of MulP: up   =     2.00000 down          =     2.00000
              total=     4.00000 ideal(neutral)=     4.00000
<DFT>  Total Spin Moment (muB) =  0.000000000000
<DFT>  Mixing_weight= 0.002830623476
<DFT>  Uele   =   -1.500847074349  dUele     =   0.001467667187
<DFT>  NormRD =    0.291259748336  Criterion =   0.000000036749

******************* MD= 1  SCF=68 *******************
<Poisson>  Poisson's equation using FFT...
<Set_Hamiltonian>  Hamiltonian matrix for VNA+dVH+Vxc...
<VQE>  Solving the eigenvalue problem...
vqe time elapsed: 0m 8s

    1    H  MulP   0.5470  0.5470 sum   1.0940
    2    H  MulP   0.4524  0.4524 sum   0.9048
    3    H  MulP   0.5317  0.5317 sum   1.0633
    4    H  MulP   0.4689  0.4689 sum   0.9378
 Sum of MulP: up   =     2.00000 down          =     2.00000
              total=     4.00000 ideal(neutral)=     4.00000
<DFT>  Total Spin Moment (muB) =  0.000000000000
<DFT>  Mixing_weight= 0.002830623476
<DFT>  Uele   =   -1.501121758044  dUele     =   0.000274683695
<DFT>  NormRD =    0.277704643369  Criterion =   0.000000036749

******************* MD= 1  SCF=69 *******************
<Poisson>  Poisson's equation using FFT...
<Set_Hamiltonian>  Hamiltonian matrix for VNA+dVH+Vxc...
<VQE>  Solving the eigenvalue problem...
vqe time elapsed: 0m 7s

    1    H  MulP   0.5698  0.5698 sum   1.1396
    2    H  MulP   0.4295  0.4295 sum   0.8590
    3    H  MulP   0.5564  0.5564 sum   1.1129
    4    H  MulP   0.4443  0.4443 sum   0.8885
 Sum of MulP: up   =     2.00000 down          =     2.00000
              total=     4.00000 ideal(neutral)=     4.00000
<DFT>  Total Spin Moment (muB) =  0.000000000000
<DFT>  Mixing_weight= 0.002830623476
<DFT>  Uele   =   -1.501025481104  dUele     =   0.000096276939
<DFT>  NormRD =    0.250697593523  Criterion =   0.000000036749

******************* MD= 1  SCF=70 *******************
<Poisson>  Poisson's equation using FFT...
<Set_Hamiltonian>  Hamiltonian matrix for VNA+dVH+Vxc...
<VQE>  Solving the eigenvalue problem...
vqe time elapsed: 0m 7s

    1    H  MulP   0.5800  0.5800 sum   1.1601
    2    H  MulP   0.4193  0.4193 sum   0.8385
    3    H  MulP   0.5676  0.5676 sum   1.1352
    4    H  MulP   0.4331  0.4331 sum   0.8662
 Sum of MulP: up   =     2.00000 down          =     2.00000
              total=     4.00000 ideal(neutral)=     4.00000
<DFT>  Total Spin Moment (muB) =  0.000000000000
<DFT>  Mixing_weight= 0.002830623476
<DFT>  Uele   =   -1.500632627970  dUele     =   0.000392853134
<DFT>  NormRD =    0.315011009287  Criterion =   0.000000036749

******************* MD= 1  SCF=71 *******************
<Poisson>  Poisson's equation using FFT...
<Set_Hamiltonian>  Hamiltonian matrix for VNA+dVH+Vxc...
<VQE>  Solving the eigenvalue problem...
vqe time elapsed: 0m 6s

    1    H  MulP   0.5739  0.5739 sum   1.1479
    2    H  MulP   0.4254  0.4254 sum   0.8507
    3    H  MulP   0.5610  0.5610 sum   1.1219
    4    H  MulP   0.4397  0.4397 sum   0.8795
 Sum of MulP: up   =     2.00000 down          =     2.00000
              total=     4.00000 ideal(neutral)=     4.00000
<DFT>  Total Spin Moment (muB) =  0.000000000000
<DFT>  Mixing_weight= 0.002830623476
<DFT>  Uele   =   -1.500891964866  dUele     =   0.000259336896
<DFT>  NormRD =    0.271074032026  Criterion =   0.000000036749

******************* MD= 1  SCF=72 *******************
<Poisson>  Poisson's equation using FFT...
<Set_Hamiltonian>  Hamiltonian matrix for VNA+dVH+Vxc...
<VQE>  Solving the eigenvalue problem...
vqe time elapsed: 0m 8s

    1    H  MulP   0.5173  0.5173 sum   1.0346
    2    H  MulP   0.4825  0.4825 sum   0.9651
    3    H  MulP   0.5008  0.5008 sum   1.0015
    4    H  MulP   0.4994  0.4994 sum   0.9988
 Sum of MulP: up   =     2.00000 down          =     2.00000
              total=     4.00000 ideal(neutral)=     4.00000
<DFT>  Total Spin Moment (muB) =  0.000000000000
<DFT>  Mixing_weight= 0.002830623476
<DFT>  Uele   =   -1.501641387277  dUele     =   0.000749422411
<DFT>  NormRD =    0.186596859451  Criterion =   0.000000036749

******************* MD= 1  SCF=73 *******************
<Poisson>  Poisson's equation using FFT...
<Set_Hamiltonian>  Hamiltonian matrix for VNA+dVH+Vxc...
<VQE>  Solving the eigenvalue problem...
vqe time elapsed: 0m 8s

    1    H  MulP   0.4736  0.4736 sum   0.9472
    2    H  MulP   0.5270  0.5270 sum   1.0540
    3    H  MulP   0.4567  0.4567 sum   0.9133
    4    H  MulP   0.5428  0.5428 sum   1.0856
 Sum of MulP: up   =     2.00000 down          =     2.00000
              total=     4.00000 ideal(neutral)=     4.00000
<DFT>  Total Spin Moment (muB) =  0.000000000000
<DFT>  Mixing_weight= 0.002830623476
<DFT>  Uele   =   -1.500674118809  dUele     =   0.000967268468
<DFT>  NormRD =    0.384021250693  Criterion =   0.000000036749

******************* MD= 1  SCF=74 *******************
<Poisson>  Poisson's equation using FFT...
<Set_Hamiltonian>  Hamiltonian matrix for VNA+dVH+Vxc...
<VQE>  Solving the eigenvalue problem...
vqe time elapsed: 0m 8s

    1    H  MulP   0.5013  0.5013 sum   1.0026
    2    H  MulP   0.4988  0.4988 sum   0.9976
    3    H  MulP   0.4844  0.4844 sum   0.9688
    4    H  MulP   0.5155  0.5155 sum   1.0309
 Sum of MulP: up   =     2.00000 down          =     2.00000
              total=     4.00000 ideal(neutral)=     4.00000
<DFT>  Total Spin Moment (muB) =  0.000000000000
<DFT>  Mixing_weight= 0.002830623476
<DFT>  Uele   =   -1.501516250853  dUele     =   0.000842132044
<DFT>  NormRD =    0.216105445700  Criterion =   0.000000036749

******************* MD= 1  SCF=75 *******************
<Poisson>  Poisson's equation using FFT...
<Set_Hamiltonian>  Hamiltonian matrix for VNA+dVH+Vxc...
<VQE>  Solving the eigenvalue problem...
vqe time elapsed: 0m 7s

    1    H  MulP   0.4860  0.4860 sum   0.9719
    2    H  MulP   0.5144  0.5144 sum   1.0288
    3    H  MulP   0.4688  0.4688 sum   0.9377
    4    H  MulP   0.5308  0.5308 sum   1.0616
 Sum of MulP: up   =     2.00000 down          =     2.00000
              total=     4.00000 ideal(neutral)=     4.00000
<DFT>  Total Spin Moment (muB) =  0.000000000000
<DFT>  Mixing_weight= 0.002830623476
<DFT>  Uele   =   -1.500899504761  dUele     =   0.000616746092
<DFT>  NormRD =    0.352055117128  Criterion =   0.000000036749

******************* MD= 1  SCF=76 *******************
<Poisson>  Poisson's equation using FFT...
<Set_Hamiltonian>  Hamiltonian matrix for VNA+dVH+Vxc...
<VQE>  Solving the eigenvalue problem...
vqe time elapsed: 0m 7s

    1    H  MulP   0.4713  0.4713 sum   0.9427
    2    H  MulP   0.5292  0.5292 sum   1.0585
    3    H  MulP   0.4547  0.4547 sum   0.9093
    4    H  MulP   0.5448  0.5448 sum   1.0895
 Sum of MulP: up   =     2.00000 down          =     2.00000
              total=     4.00000 ideal(neutral)=     4.00000
<DFT>  Total Spin Moment (muB) =  0.000000000000
<DFT>  Mixing_weight= 0.002830623476
<DFT>  Uele   =   -1.500644964990  dUele     =   0.000254539771
<DFT>  NormRD =    0.381945717995  Criterion =   0.000000036749

******************* MD= 1  SCF=77 *******************
<Poisson>  Poisson's equation using FFT...
<Set_Hamiltonian>  Hamiltonian matrix for VNA+dVH+Vxc...
<VQE>  Solving the eigenvalue problem...
vqe time elapsed: 0m 9s

    1    H  MulP   0.5466  0.5466 sum   1.0933
    2    H  MulP   0.4529  0.4529 sum   0.9057
    3    H  MulP   0.5320  0.5320 sum   1.0640
    4    H  MulP   0.4685  0.4685 sum   0.9370
 Sum of MulP: up   =     2.00000 down          =     2.00000
              total=     4.00000 ideal(neutral)=     4.00000
<DFT>  Total Spin Moment (muB) =  0.000000000000
<DFT>  Mixing_weight= 0.002830623476
<DFT>  Uele   =   -1.502235187463  dUele     =   0.001590222473
<DFT>  NormRD =    0.036777754219  Criterion =   0.000000036749

******************* MD= 1  SCF=78 *******************
<Poisson>  Poisson's equation using FFT...
<Set_Hamiltonian>  Hamiltonian matrix for VNA+dVH+Vxc...
<VQE>  Solving the eigenvalue problem...
vqe time elapsed: 0m 2s

    1    H  MulP   0.5468  0.5468 sum   1.0937
    2    H  MulP   0.4526  0.4526 sum   0.9053
    3    H  MulP   0.5322  0.5322 sum   1.0645
    4    H  MulP   0.4683  0.4683 sum   0.9366
 Sum of MulP: up   =     2.00000 down          =     2.00000
              total=     4.00000 ideal(neutral)=     4.00000
<DFT>  Total Spin Moment (muB) =  0.000000000000
<DFT>  Mixing_weight= 0.002830623476
<DFT>  Uele   =   -1.501824067213  dUele     =   0.000411120250
<DFT>  NormRD =    0.130333698185  Criterion =   0.000000036749

******************* MD= 1  SCF=79 *******************
<Poisson>  Poisson's equation using FFT...
<Set_Hamiltonian>  Hamiltonian matrix for VNA+dVH+Vxc...
<VQE>  Solving the eigenvalue problem...
vqe time elapsed: 0m 7s

    1    H  MulP   0.5518  0.5518 sum   1.1036
    2    H  MulP   0.4476  0.4476 sum   0.8952
    3    H  MulP   0.5373  0.5373 sum   1.0747
    4    H  MulP   0.4632  0.4632 sum   0.9265
 Sum of MulP: up   =     2.00000 down          =     2.00000
              total=     4.00000 ideal(neutral)=     4.00000
<DFT>  Total Spin Moment (muB) =  0.000000000000
<DFT>  Mixing_weight= 0.002830623476
<DFT>  Uele   =   -1.501807181721  dUele     =   0.000016885492
<DFT>  NormRD =    0.103756721658  Criterion =   0.000000036749

******************* MD= 1  SCF=80 *******************
<Poisson>  Poisson's equation using FFT...
<Set_Hamiltonian>  Hamiltonian matrix for VNA+dVH+Vxc...
<VQE>  Solving the eigenvalue problem...
vqe time elapsed: 0m 7s

    1    H  MulP   0.5771  0.5771 sum   1.1543
    2    H  MulP   0.4222  0.4222 sum   0.8444
    3    H  MulP   0.5647  0.5647 sum   1.1294
[...]
<DFT>  Total Spin Moment (muB) =  0.000000000000
<DFT>  Mixing_weight= 0.001985410598
<DFT>  Uele   =   -0.821323314891  dUele     =   0.000000511189
<DFT>  NormRD =    0.002161904061  Criterion =   0.000000036749

******************* MD= 1  SCF=467 *******************
<Poisson>  Poisson's equation using FFT...
<Set_Hamiltonian>  Hamiltonian matrix for VNA+dVH+Vxc...
<VQE>  Solving the eigenvalue problem...
vqe time elapsed: 0m 1s

    1    H  MulP   0.5000  0.5000 sum   1.0000
    2    H  MulP   0.4996  0.4996 sum   0.9991
    3    H  MulP   0.5006  0.5006 sum   1.0011
    4    H  MulP   0.4999  0.4999 sum   0.9997
 Sum of MulP: up   =     2.00000 down          =     2.00000
              total=     4.00000 ideal(neutral)=     4.00000
<DFT>  Total Spin Moment (muB) =  0.000000000000
<DFT>  Mixing_weight= 0.001985410598
<DFT>  Uele   =   -0.821323329048  dUele     =   0.000000014157
<DFT>  NormRD =    0.000998753559  Criterion =   0.000000036749

******************* MD= 1  SCF=468 *******************
<Poisson>  Poisson's equation using FFT...
<Set_Hamiltonian>  Hamiltonian matrix for VNA+dVH+Vxc...
<VQE>  Solving the eigenvalue problem...
vqe time elapsed: 0m 0s

    1    H  MulP   0.4998  0.4998 sum   0.9995
    2    H  MulP   0.4998  0.4998 sum   0.9996
    3    H  MulP   0.5003  0.5003 sum   1.0007
    4    H  MulP   0.5001  0.5001 sum   1.0002
 Sum of MulP: up   =     2.00000 down          =     2.00000
              total=     4.00000 ideal(neutral)=     4.00000
<DFT>  Total Spin Moment (muB) =  0.000000000000
<DFT>  Mixing_weight= 0.001985410598
<DFT>  Uele   =   -0.821323311741  dUele     =   0.000000017307
<DFT>  NormRD =    0.000517916534  Criterion =   0.000000036749

******************* MD= 1  SCF=469 *******************
<Poisson>  Poisson's equation using FFT...
<Set_Hamiltonian>  Hamiltonian matrix for VNA+dVH+Vxc...
<VQE>  Solving the eigenvalue problem...
vqe time elapsed: 0m 2s

    1    H  MulP   0.5021  0.5021 sum   1.0041
    2    H  MulP   0.5044  0.5044 sum   1.0089
    3    H  MulP   0.4949  0.4949 sum   0.9897
    4    H  MulP   0.4987  0.4987 sum   0.9973
 Sum of MulP: up   =     2.00000 down          =     2.00000
              total=     4.00000 ideal(neutral)=     4.00000
<DFT>  Total Spin Moment (muB) =  0.000000000000
<DFT>  Mixing_weight= 0.001985410598
<DFT>  Uele   =   -0.821325683527  dUele     =   0.000002371786
<DFT>  NormRD =    0.008367935408  Criterion =   0.000000036749

******************* MD= 1  SCF=470 *******************
<Poisson>  Poisson's equation using FFT...
<Set_Hamiltonian>  Hamiltonian matrix for VNA+dVH+Vxc...
<VQE>  Solving the eigenvalue problem...
vqe time elapsed: 0m 1s

    1    H  MulP   0.4997  0.4997 sum   0.9993
    2    H  MulP   0.5015  0.5015 sum   1.0030
    3    H  MulP   0.4974  0.4974 sum   0.9948
    4    H  MulP   0.5015  0.5015 sum   1.0030
 Sum of MulP: up   =     2.00000 down          =     2.00000
              total=     4.00000 ideal(neutral)=     4.00000
<DFT>  Total Spin Moment (muB) =  0.000000000000
<DFT>  Mixing_weight= 0.001985410598
<DFT>  Uele   =   -0.821323515030  dUele     =   0.000002168497
<DFT>  NormRD =    0.005244497276  Criterion =   0.000000036749

******************* MD= 1  SCF=471 *******************
<Poisson>  Poisson's equation using FFT...
<Set_Hamiltonian>  Hamiltonian matrix for VNA+dVH+Vxc...
<VQE>  Solving the eigenvalue problem...
vqe time elapsed: 0m 0s

    1    H  MulP   0.5019  0.5019 sum   1.0038
    2    H  MulP   0.4993  0.4993 sum   0.9985
    3    H  MulP   0.4996  0.4996 sum   0.9992
    4    H  MulP   0.4992  0.4992 sum   0.9985
 Sum of MulP: up   =     2.00000 down          =     2.00000
              total=     4.00000 ideal(neutral)=     4.00000
<DFT>  Total Spin Moment (muB) =  0.000000000000
<DFT>  Mixing_weight= 0.001985410598
<DFT>  Uele   =   -0.821323149423  dUele     =   0.000000365607
<DFT>  NormRD =    0.003233762321  Criterion =   0.000000036749

******************* MD= 1  SCF=472 *******************
<Poisson>  Poisson's equation using FFT...
<Set_Hamiltonian>  Hamiltonian matrix for VNA+dVH+Vxc...
<VQE>  Solving the eigenvalue problem...
vqe time elapsed: 0m 1s

    1    H  MulP   0.4991  0.4991 sum   0.9982
    2    H  MulP   0.5020  0.5020 sum   1.0040
    3    H  MulP   0.4980  0.4980 sum   0.9959
    4    H  MulP   0.5009  0.5009 sum   1.0018
 Sum of MulP: up   =     2.00000 down          =     2.00000
              total=     4.00000 ideal(neutral)=     4.00000
<DFT>  Total Spin Moment (muB) =  0.000000000000
<DFT>  Mixing_weight= 0.001985410598
<DFT>  Uele   =   -0.821323425171  dUele     =   0.000000275748
<DFT>  NormRD =    0.004516681849  Criterion =   0.000000036749

******************* MD= 1  SCF=473 *******************
<Poisson>  Poisson's equation using FFT...
<Set_Hamiltonian>  Hamiltonian matrix for VNA+dVH+Vxc...
<VQE>  Solving the eigenvalue problem...
vqe time elapsed: 0m 0s

    1    H  MulP   0.5006  0.5006 sum   1.0012
    2    H  MulP   0.5005  0.5005 sum   1.0011
    3    H  MulP   0.4994  0.4994 sum   0.9989
    4    H  MulP   0.4995  0.4995 sum   0.9989
 Sum of MulP: up   =     2.00000 down          =     2.00000
              total=     4.00000 ideal(neutral)=     4.00000
<DFT>  Total Spin Moment (muB) =  0.000000000000
<DFT>  Mixing_weight= 0.001985410598
<DFT>  Uele   =   -0.821323161381  dUele     =   0.000000263791
<DFT>  NormRD =    0.001622718158  Criterion =   0.000000036749

******************* MD= 1  SCF=474 *******************
<Poisson>  Poisson's equation using FFT...
<Set_Hamiltonian>  Hamiltonian matrix for VNA+dVH+Vxc...
<VQE>  Solving the eigenvalue problem...
vqe time elapsed: 0m 3s

    1    H  MulP   0.4863  0.4863 sum   0.9725
    2    H  MulP   0.5194  0.5194 sum   1.0388
    3    H  MulP   0.5046  0.5046 sum   1.0093
    4    H  MulP   0.4897  0.4897 sum   0.9795
 Sum of MulP: up   =     2.00000 down          =     2.00000
              total=     4.00000 ideal(neutral)=     4.00000
<DFT>  Total Spin Moment (muB) =  0.000000000000
<DFT>  Mixing_weight= 0.001985410598
<DFT>  Uele   =   -0.821356258800  dUele     =   0.000033097419
<DFT>  NormRD =    0.030092099787  Criterion =   0.000000036749

******************* MD= 1  SCF=475 *******************
<Poisson>  Poisson's equation using FFT...
<Set_Hamiltonian>  Hamiltonian matrix for VNA+dVH+Vxc...
<VQE>  Solving the eigenvalue problem...
vqe time elapsed: 0m 4s

    1    H  MulP   0.5216  0.5216 sum   1.0432
    2    H  MulP   0.4582  0.4582 sum   0.9164
    3    H  MulP   0.5040  0.5040 sum   1.0079
    4    H  MulP   0.5162  0.5162 sum   1.0325
 Sum of MulP: up   =     2.00000 down          =     2.00000
              total=     4.00000 ideal(neutral)=     4.00000
<DFT>  Total Spin Moment (muB) =  0.000000000000
<DFT>  Mixing_weight= 0.001985410598
<DFT>  Uele   =   -0.821429991802  dUele     =   0.000073733003
<DFT>  NormRD =    0.061716867271  Criterion =   0.000000036749

******************* MD= 1  SCF=476 *******************
<Poisson>  Poisson's equation using FFT...
<Set_Hamiltonian>  Hamiltonian matrix for VNA+dVH+Vxc...
<VQE>  Solving the eigenvalue problem...
vqe time elapsed: 0m 4s

    1    H  MulP   0.5020  0.5020 sum   1.0039
    2    H  MulP   0.4980  0.4980 sum   0.9960
    3    H  MulP   0.5028  0.5028 sum   1.0055
    4    H  MulP   0.4973  0.4973 sum   0.9945
 Sum of MulP: up   =     2.00000 down          =     2.00000
              total=     4.00000 ideal(neutral)=     4.00000
<DFT>  Total Spin Moment (muB) =  0.000000000000
<DFT>  Mixing_weight= 0.001985410598
<DFT>  Uele   =   -0.821320953830  dUele     =   0.000109037973
<DFT>  NormRD =    0.007458412812  Criterion =   0.000000036749

******************* MD= 1  SCF=477 *******************
<Poisson>  Poisson's equation using FFT...
<Set_Hamiltonian>  Hamiltonian matrix for VNA+dVH+Vxc...
<VQE>  Solving the eigenvalue problem...
vqe time elapsed: 0m 1s

    1    H  MulP   0.4999  0.4999 sum   0.9998
    2    H  MulP   0.5007  0.5007 sum   1.0014
    3    H  MulP   0.4998  0.4998 sum   0.9995
    4    H  MulP   0.4997  0.4997 sum   0.9993
 Sum of MulP: up   =     2.00000 down          =     2.00000
              total=     4.00000 ideal(neutral)=     4.00000
<DFT>  Total Spin Moment (muB) =  0.000000000000
<DFT>  Mixing_weight= 0.001985410598
<DFT>  Uele   =   -0.821321417306  dUele     =   0.000000463476
<DFT>  NormRD =    0.001045661580  Criterion =   0.000000036749

******************* MD= 1  SCF=478 *******************
<Poisson>  Poisson's equation using FFT...
<Set_Hamiltonian>  Hamiltonian matrix for VNA+dVH+Vxc...
<VQE>  Solving the eigenvalue problem...
vqe time elapsed: 0m 1s

    1    H  MulP   0.5130  0.5130 sum   1.0260
    2    H  MulP   0.4868  0.4868 sum   0.9737
    3    H  MulP   0.5133  0.5133 sum   1.0265
    4    H  MulP   0.4869  0.4869 sum   0.9737
 Sum of MulP: up   =     2.00000 down          =     2.00000
              total=     4.00000 ideal(neutral)=     4.00000
<DFT>  Total Spin Moment (muB) =  0.000000000000
<DFT>  Mixing_weight= 0.001985410598
<DFT>  Uele   =   -0.821330249884  dUele     =   0.000008832579
<DFT>  NormRD =    0.041664914212  Criterion =   0.000000036749

******************* MD= 1  SCF=479 *******************
<Poisson>  Poisson's equation using FFT...
<Set_Hamiltonian>  Hamiltonian matrix for VNA+dVH+Vxc...
<VQE>  Solving the eigenvalue problem...
vqe time elapsed: 0m 1s

    1    H  MulP   0.5022  0.5022 sum   1.0044
    2    H  MulP   0.4978  0.4978 sum   0.9956
    3    H  MulP   0.5024  0.5024 sum   1.0048
    4    H  MulP   0.4976  0.4976 sum   0.9952
 Sum of MulP: up   =     2.00000 down          =     2.00000
              total=     4.00000 ideal(neutral)=     4.00000
<DFT>  Total Spin Moment (muB) =  0.000000000000
<DFT>  Mixing_weight= 0.001985410598
<DFT>  Uele   =   -0.821322761562  dUele     =   0.000007488323
<DFT>  NormRD =    0.007103114356  Criterion =   0.000000036749

******************* MD= 1  SCF=480 *******************
<Poisson>  Poisson's equation using FFT...
<Set_Hamiltonian>  Hamiltonian matrix for VNA+dVH+Vxc...
<VQE>  Solving the eigenvalue problem...
vqe time elapsed: 0m 1s

    1    H  MulP   0.5011  0.5011 sum   1.0022
    2    H  MulP   0.4996  0.4996 sum   0.9992
    3    H  MulP   0.5002  0.5002 sum   1.0004
    4    H  MulP   0.4991  0.4991 sum   0.9982
 Sum of MulP: up   =     2.00000 down          =     2.00000
              total=     4.00000 ideal(neutral)=     4.00000
<DFT>  Total Spin Moment (muB) =  0.000000000000
<DFT>  Mixing_weight= 0.001985410598
<DFT>  Uele   =   -0.821323036421  dUele     =   0.000000274859
<DFT>  NormRD =    0.002833019650  Criterion =   0.000000036749

******************* MD= 1  SCF=481 *******************
<Poisson>  Poisson's equation using FFT...
<Set_Hamiltonian>  Hamiltonian matrix for VNA+dVH+Vxc...
<VQE>  Solving the eigenvalue problem...
vqe time elapsed: 0m 1s

    1    H  MulP   0.4966  0.4966 sum   0.9932
    2    H  MulP   0.5027  0.5027 sum   1.0055
    3    H  MulP   0.4973  0.4973 sum   0.9946
    4    H  MulP   0.5033  0.5033 sum   1.0067
 Sum of MulP: up   =     2.00000 down          =     2.00000
              total=     4.00000 ideal(neutral)=     4.00000
<DFT>  Total Spin Moment (muB) =  0.000000000000
<DFT>  Mixing_weight= 0.001985410598
<DFT>  Uele   =   -0.821323832751  dUele     =   0.000000796331
<DFT>  NormRD =    0.008889557234  Criterion =   0.000000036749

******************* MD= 1  SCF=482 *******************
<Poisson>  Poisson's equation using FFT...
<Set_Hamiltonian>  Hamiltonian matrix for VNA+dVH+Vxc...
<VQE>  Solving the eigenvalue problem...
vqe time elapsed: 0m 1s

    1    H  MulP   0.5012  0.5012 sum   1.0024
    2    H  MulP   0.4989  0.4989 sum   0.9978
    3    H  MulP   0.5011  0.5011 sum   1.0021
    4    H  MulP   0.4988  0.4988 sum   0.9976
 Sum of MulP: up   =     2.00000 down          =     2.00000
              total=     4.00000 ideal(neutral)=     4.00000
<DFT>  Total Spin Moment (muB) =  0.000000000000
<DFT>  Mixing_weight= 0.001985410598
<DFT>  Uele   =   -0.821323379726  dUele     =   0.000000453025
<DFT>  NormRD =    0.003347766643  Criterion =   0.000000036749

******************* MD= 1  SCF=483 *******************
<Poisson>  Poisson's equation using FFT...
<Set_Hamiltonian>  Hamiltonian matrix for VNA+dVH+Vxc...
<VQE>  Solving the eigenvalue problem...
vqe time elapsed: 0m 0s

    1    H  MulP   0.5004  0.5004 sum   1.0009
    2    H  MulP   0.4997  0.4997 sum   0.9994
    3    H  MulP   0.5003  0.5003 sum   1.0006
    4    H  MulP   0.4996  0.4996 sum   0.9992
 Sum of MulP: up   =     2.00000 down          =     2.00000
              total=     4.00000 ideal(neutral)=     4.00000
<DFT>  Total Spin Moment (muB) =  0.000000000000
<DFT>  Mixing_weight= 0.001985410598
<DFT>  Uele   =   -0.821323302489  dUele     =   0.000000077237
<DFT>  NormRD =    0.000787908042  Criterion =   0.000000036749

******************* MD= 1  SCF=484 *******************
<Poisson>  Poisson's equation using FFT...
<Set_Hamiltonian>  Hamiltonian matrix for VNA+dVH+Vxc...
<VQE>  Solving the eigenvalue problem...
vqe time elapsed: 0m 0s

    1    H  MulP   0.5002  0.5002 sum   1.0004
    2    H  MulP   0.4999  0.4999 sum   0.9999
    3    H  MulP   0.5000  0.5000 sum   1.0001
    4    H  MulP   0.4998  0.4998 sum   0.9996
 Sum of MulP: up   =     2.00000 down          =     2.00000
              total=     4.00000 ideal(neutral)=     4.00000
<DFT>  Total Spin Moment (muB) =  0.000000000000
<DFT>  Mixing_weight= 0.001985410598
<DFT>  Uele   =   -0.821323291873  dUele     =   0.000000010617
<DFT>  NormRD =    0.000526433724  Criterion =   0.000000036749

******************* MD= 1  SCF=485 *******************
<Poisson>  Poisson's equation using FFT...
<Set_Hamiltonian>  Hamiltonian matrix for VNA+dVH+Vxc...
<VQE>  Solving the eigenvalue problem...
vqe time elapsed: 0m 0s

    1    H  MulP   0.5002  0.5002 sum   1.0004
    2    H  MulP   0.4999  0.4999 sum   0.9998
    3    H  MulP   0.5000  0.5000 sum   1.0001
    4    H  MulP   0.4998  0.4998 sum   0.9996
 Sum of MulP: up   =     2.00000 down          =     2.00000
              total=     4.00000 ideal(neutral)=     4.00000
<DFT>  Total Spin Moment (muB) =  0.000000000000
<DFT>  Mixing_weight= 0.001985410598
<DFT>  Uele   =   -0.821323289155  dUele     =   0.000000002718
<DFT>  NormRD =    0.000495460259  Criterion =   0.000000036749
<MD= 1>  Force calculation
  Force calculation #1
  Force calculation #2
  Force calculation #3
  Force calculation #4
  Force calculation #5
<MD= 1>  Total Energy
  Force calculation #6
  Force calculation #7

*******************************************************
                  Dipole moment (Debye)                 
*******************************************************

 Absolute D        2.20750864

                      Dx                Dy                Dz
 Total              2.20750864       -0.00000000       -0.00000000
 Core              86.45772237        0.00000000        0.00000000
 Electron         -84.25021373       -0.00000000       -0.00000000
 Back ground       -0.00000000        0.00000000       -0.00000000

*******************************************************
                Total Energy (Hartree) at MD = 1        
*******************************************************

  Uele  =      -0.821323289155

  Ukin  =       1.875265791785
  UH0   =      -2.245518265526
  UH1   =       0.000374444176
  Una   =      -1.758712302025
  Unl   =       0.253621213192
  Uxc0  =      -0.495955957770
  Uxc1  =      -0.495955957770
  Ucore =       1.058354498000
  Uhub  =       0.000000000000
  Ucs   =       0.000000000000
  Uzs   =       0.000000000000
  Uzo   =       0.000000000000
  Uef   =       0.000000000000
  UvdW  =       0.000000000000
  Uch   =       0.000000000000
  Utot  =      -1.808526535938

  UpV   =       0.000000000000
  Enpy  =      -1.808526535938
  Note:

  Uele:   band energy
  Ukin:   kinetic energy
  UH0:    electric part of screened Coulomb energy
  UH1:    difference electron-electron Coulomb energy
  Una:    neutral atom potential energy
  Unl:    non-local potential energy
  Uxc0:   exchange-correlation energy for alpha spin
  Uxc1:   exchange-correlation energy for beta spin
  Ucore:  core-core Coulomb energy
  Uhub:   LDA+U energy
  Ucs:    constraint energy for spin orientation
  Uzs:    Zeeman term for spin magnetic moment
  Uzo:    Zeeman term for orbital magnetic moment
  Uef:    electric energy by electric field
  UvdW:   semi-empirical vdW energy 
  Uch:    penalty term to create a core hole
  UpV:    pressure times volume
  Enpy:   Enthalpy = Utot + UpV
  (see also PRB 72, 045121(2005) for the energy contributions)


*******************************************************
           Computational times (s) at MD = 1            
*******************************************************

  DFT in total      = 1926.36444

  Set_OLP_Kin       =    0.06093
  Set_Nonlocal      =    0.04592
  Set_ProExpn_VNA   =    0.14435
  Set_Hamiltonian   =    0.38155
  Poisson           =    0.76635
  diagonalization   = 1900.04397
  Mixing_DM         =    0.01004
  Force             =    0.00359
  Total_Energy      =    0.36272
  Set_Aden_Grid     =    0.00158
  Set_Orbitals_Grid =    0.00101
  Set_Density_Grid  =    0.13717
  RestartFileDFT    =    0.32766
  Mulliken_Charge   =    0.06654
  FFT(2D)_Density   =    0.00000

The SCF was achieved at MD=   1

*******************************************************
             MD or geometry opt. at MD = 1              
*******************************************************


outputting data on grids to files...


***********************************************************
***********************************************************
               Computational Time (second)                 
***********************************************************
***********************************************************

                               Min_ID   Min_Time       Max_ID   Max_Time
   Total Computational Time =     0     1930.439          0     1930.439
   readfile                 =     0        2.414          0        2.414
   truncation               =     0        0.091          0        0.091
   MD_pac                   =     0        0.095          0        0.095
   OutData                  =     0        0.976          0        0.976
   DFT                      =     0     1926.364          0     1926.364

*** In DFT ***

   Set_OLP_Kin              =     0        0.061          0        0.061
   Set_Nonlocal             =     0        0.046          0        0.046
   Set_ProExpn_VNA          =     0        0.144          0        0.144
   Set_Hamiltonian          =     0        0.382          0        0.382
   Poisson                  =     0        0.766          0        0.766
   Diagonalization          =     0     1900.044          0     1900.044
   Mixing_DM                =     0        0.010          0        0.010
   Force                    =     0        0.004          0        0.004
   Total_Energy             =     0        0.363          0        0.363
   Set_Aden_Grid            =     0        0.002          0        0.002
   Set_Orbitals_Grid        =     0        0.001          0        0.001
   Set_Density_Grid         =     0        0.137          0        0.137
   RestartFileDFT           =     0        0.328          0        0.328
   Mulliken_Charge          =     0        0.067          0        0.067
   FFT(2D)_Density          =     0        0.000          0        0.000
   Others                   =     0       24.011          0       24.011

The calculation was normally finished.
<DFT> Parameters
method = openmx-vqe
N = 4  R = 3.0  np = 1
dir_output = /home/yerin/qdft/hchain/output/N4/openmx-vqe_R3.00

run_openmx Done: 32m 12s


# Time Start   : Wed Apr 16 20:25:59 KST 2025
# Time End     : Thu Apr 17 00:36:19 KST 2025
# Time Elapsed : 4h 10m 20.300748366s

