
The number of threads in each node for OpenMP parallelization is 1.


*******************************************************
*******************************************************
 Welcome to OpenMX   Ver. 3.9.9                           
 Copyright (C), 2002-2019, T. Ozaki                    
 OpenMX comes with ABSOLUTELY NO WARRANTY.             
 This is free software, and you are welcome to         
 redistribute it under the constitution of the GNU-GPL.
*******************************************************
*******************************************************



<Input_std>  Your input file was normally read.
<Input_std>  The system includes 1 species and 8 atoms.

*******************************************************
                     PAO and VPS                       
*******************************************************

<SetPara_DFT>  PAOs of species H were normally found.
<SetPara_DFT>  VPSs of species H were normally found.
               H_CA19.vps is j-dependent.
               In case of scf.SpinOrbit.Coupling=off,
               j-dependent pseudo potentials are averaged by j-degeneracy,
               which corresponds to a scalar relativistic treatment.

*******************************************************
     Fourier transform of PAO and projectors of VNL    
*******************************************************

<FT_PAO>          Fourier transform of pseudo atomic orbitals
<FT_NLP>          Fourier transform of non-local projectors
<FT_ProExpn_VNA>  Fourier transform of VNA separable projectors
<FT_VNA>          Fourier transform of VNA potentials
<FT_ProductPAO>   Fourier transform of product of PAOs

*******************************************************
  Allocation of atoms to processors at MD_iter=    1     
*******************************************************

 proc =   0  # of atoms=   2  estimated weight=         2.00000
 proc =   1  # of atoms=   2  estimated weight=         2.00000
 proc =   2  # of atoms=   2  estimated weight=         2.00000
 proc =   3  # of atoms=   2  estimated weight=         2.00000




*******************************************************
        Analysis of neighbors and setting of grids        
*******************************************************

TFNAN=     172   Average FNAN=  21.50000
TSNAN=       0   Average SNAN=   0.00000
<truncation> CpyCell= 1 ct_AN=   1 FNAN SNAN  20   0
<truncation> CpyCell= 1 ct_AN=   2 FNAN SNAN  21   0
<truncation> CpyCell= 1 ct_AN=   3 FNAN SNAN  22   0
<truncation> CpyCell= 1 ct_AN=   4 FNAN SNAN  23   0
<truncation> CpyCell= 1 ct_AN=   5 FNAN SNAN  23   0
<truncation> CpyCell= 1 ct_AN=   6 FNAN SNAN  22   0
<truncation> CpyCell= 1 ct_AN=   7 FNAN SNAN  21   0
<truncation> CpyCell= 1 ct_AN=   8 FNAN SNAN  20   0
TFNAN=     192   Average FNAN=  24.00000
TSNAN=       0   Average SNAN=   0.00000
<truncation> CpyCell= 2 ct_AN=   1 FNAN SNAN  24   0
<truncation> CpyCell= 2 ct_AN=   2 FNAN SNAN  24   0
<truncation> CpyCell= 2 ct_AN=   3 FNAN SNAN  24   0
<truncation> CpyCell= 2 ct_AN=   4 FNAN SNAN  24   0
<truncation> CpyCell= 2 ct_AN=   5 FNAN SNAN  24   0
<truncation> CpyCell= 2 ct_AN=   6 FNAN SNAN  24   0
<truncation> CpyCell= 2 ct_AN=   7 FNAN SNAN  24   0
<truncation> CpyCell= 2 ct_AN=   8 FNAN SNAN  24   0
TFNAN=     192   Average FNAN=  24.00000
TSNAN=       0   Average SNAN=   0.00000
<truncation> CpyCell= 3 ct_AN=   1 FNAN SNAN  24   0
<truncation> CpyCell= 3 ct_AN=   2 FNAN SNAN  24   0
<truncation> CpyCell= 3 ct_AN=   3 FNAN SNAN  24   0
<truncation> CpyCell= 3 ct_AN=   4 FNAN SNAN  24   0
<truncation> CpyCell= 3 ct_AN=   5 FNAN SNAN  24   0
<truncation> CpyCell= 3 ct_AN=   6 FNAN SNAN  24   0
<truncation> CpyCell= 3 ct_AN=   7 FNAN SNAN  24   0
<truncation> CpyCell= 3 ct_AN=   8 FNAN SNAN  24   0
TFNAN=     192   Average FNAN=  24.00000
TSNAN=       0   Average SNAN=   0.00000
<truncation> CpyCell= 3 ct_AN=   1 FNAN SNAN  24   0
<truncation> CpyCell= 3 ct_AN=   2 FNAN SNAN  24   0
<truncation> CpyCell= 3 ct_AN=   3 FNAN SNAN  24   0
<truncation> CpyCell= 3 ct_AN=   4 FNAN SNAN  24   0
<truncation> CpyCell= 3 ct_AN=   5 FNAN SNAN  24   0
<truncation> CpyCell= 3 ct_AN=   6 FNAN SNAN  24   0
<truncation> CpyCell= 3 ct_AN=   7 FNAN SNAN  24   0
<truncation> CpyCell= 3 ct_AN=   8 FNAN SNAN  24   0
<Check_System> The system is chain.
lattice vectors (bohr)
A  =  7.558903954316,  0.000000000000,  0.000000000000
B  =  0.000000000000, 28.345889828684,  0.000000000000
C  =  0.000000000000,  0.000000000000, 28.345889828684
reciprocal lattice vectors (bohr^-1)
RA =  0.831229678953,  0.000000000000,  0.000000000000
RB =  0.000000000000,  0.221661247721,  0.000000000000
RC =  0.000000000000,  0.000000000000,  0.221661247721
Grid_Origin  0.000000000000 -13.700513417197 -13.700513417197
Cell_Volume =   6073.499733393734 (Bohr^3)
GridVol     =      0.843541629638 (Bohr^3)
Grid_Origin  0.000000000000 -13.700513417197 -13.700513417197
Cell_Volume =   6073.499733393734 (Bohr^3)
GridVol     =      0.843541629638 (Bohr^3)
<UCell_Box> Info. of cutoff energy and num. of grids
lattice vectors (bohr)
A  =  7.558903954316,  0.000000000000,  0.000000000000
B  =  0.000000000000, 28.345889828684,  0.000000000000
C  =  0.000000000000,  0.000000000000, 28.345889828684
reciprocal lattice vectors (bohr^-1)
RA =  0.831229678953,  0.000000000000,  0.000000000000
RB =  0.000000000000,  0.221661247721,  0.000000000000
RC =  0.000000000000,  0.000000000000,  0.221661247721
Required cutoff energy (Ryd) for 3D-grids = 11.0248
    Used cutoff energy (Ryd) for 3D-grids = 11.0551, 11.0551, 11.0551
Num. of grids of a-, b-, and c-axes =  8, 30, 30
Grid_Origin  0.000000000000 -13.700513417197 -13.700513417197
Cell_Volume =   6073.499733393734 (Bohr^3)
GridVol     =      0.843541629638 (Bohr^3)
Cell vectors (bohr) of the grid cell (gtv)
  gtv_a =  0.944862994289,  0.000000000000,  0.000000000000
  gtv_b =  0.000000000000,  0.944862994289,  0.000000000000
  gtv_c =  0.000000000000,  0.000000000000,  0.944862994289
  |gtv_a| =  0.944862994289
  |gtv_b| =  0.944862994289
  |gtv_c| =  0.944862994289
Num. of grids overlapping with atom    1 = 1056
Num. of grids overlapping with atom    2 = 1056
Num. of grids overlapping with atom    3 = 1056
Num. of grids overlapping with atom    4 = 1056
Num. of grids overlapping with atom    5 = 1056
Num. of grids overlapping with atom    6 = 1056
Num. of grids overlapping with atom    7 = 1056
Num. of grids overlapping with atom    8 = 1056

*******************************************************
             SCF calculation at MD = 1                
*******************************************************

<MD= 1>  Calculation of the overlap matrix
<MD= 1>  Calculation of the nonlocal matrix
<MD= 1>  Calculation of the VNA projector matrix

******************* MD= 1  SCF= 1 *******************
<Cluster>  Solving the eigenvalue problem...
    1    H  MulP   0.5000  0.5000 sum   1.0000
    2    H  MulP   0.5000  0.5000 sum   1.0000
    3    H  MulP   0.5000  0.5000 sum   1.0000
    4    H  MulP   0.5000  0.5000 sum   1.0000
    5    H  MulP   0.5000  0.5000 sum   1.0000
    6    H  MulP   0.5000  0.5000 sum   1.0000
    7    H  MulP   0.5000  0.5000 sum   1.0000
    8    H  MulP   0.5000  0.5000 sum   1.0000
 Sum of MulP: up   =     4.00000 down          =     4.00000
              total=     8.00000 ideal(neutral)=     8.00000
<DFT>  Total Spin Moment (muB) =  0.000000000000
<DFT>  Mixing_weight= 0.300000000000
<DFT>  Uele   =   -6.479330157788  dUele     =   1.000000000000
<DFT>  NormRD =    1.000000000000  Criterion =   0.000000036749

******************* MD= 1  SCF= 2 *******************
<Poisson>  Poisson's equation using FFT...
<Set_Hamiltonian>  Hamiltonian matrix for VNA+dVH+Vxc...
<Cluster>  Solving the eigenvalue problem...
    1    H  MulP   0.5000  0.5000 sum   1.0000
    2    H  MulP   0.5000  0.5000 sum   1.0000
    3    H  MulP   0.5000  0.5000 sum   1.0000
    4    H  MulP   0.5000  0.5000 sum   1.0000
    5    H  MulP   0.5000  0.5000 sum   1.0000
    6    H  MulP   0.5000  0.5000 sum   1.0000
    7    H  MulP   0.5000  0.5000 sum   1.0000
    8    H  MulP   0.5000  0.5000 sum   1.0000
 Sum of MulP: up   =     4.00000 down          =     4.00000
              total=     8.00000 ideal(neutral)=     8.00000
<DFT>  Total Spin Moment (muB) =  0.000000000000
<DFT>  Mixing_weight= 0.324079284900
<DFT>  Uele   =   -6.526409361330  dUele     =   0.047079203542
<DFT>  NormRD =    0.272581361648  Criterion =   0.000000036749

******************* MD= 1  SCF= 3 *******************
<Poisson>  Poisson's equation using FFT...
<Set_Hamiltonian>  Hamiltonian matrix for VNA+dVH+Vxc...
<Cluster>  Solving the eigenvalue problem...
    1    H  MulP   0.5000  0.5000 sum   1.0000
    2    H  MulP   0.5000  0.5000 sum   1.0000
    3    H  MulP   0.5000  0.5000 sum   1.0000
    4    H  MulP   0.5000  0.5000 sum   1.0000
    5    H  MulP   0.5000  0.5000 sum   1.0000
    6    H  MulP   0.5000  0.5000 sum   1.0000
    7    H  MulP   0.5000  0.5000 sum   1.0000
    8    H  MulP   0.5000  0.5000 sum   1.0000
 Sum of MulP: up   =     4.00000 down          =     4.00000
              total=     8.00000 ideal(neutral)=     8.00000
<DFT>  Total Spin Moment (muB) =  0.000000000000
<DFT>  Mixing_weight= 0.400000000000
<DFT>  Uele   =   -6.575754124876  dUele     =   0.049344763547
<DFT>  NormRD =    0.191328277157  Criterion =   0.000000036749

******************* MD= 1  SCF= 4 *******************
<Poisson>  Poisson's equation using FFT...
<Set_Hamiltonian>  Hamiltonian matrix for VNA+dVH+Vxc...
<Cluster>  Solving the eigenvalue problem...
    1    H  MulP   0.5000  0.5000 sum   1.0000
    2    H  MulP   0.5000  0.5000 sum   1.0000
    3    H  MulP   0.5000  0.5000 sum   1.0000
    4    H  MulP   0.5000  0.5000 sum   1.0000
    5    H  MulP   0.5000  0.5000 sum   1.0000
    6    H  MulP   0.5000  0.5000 sum   1.0000
    7    H  MulP   0.5000  0.5000 sum   1.0000
    8    H  MulP   0.5000  0.5000 sum   1.0000
 Sum of MulP: up   =     4.00000 down          =     4.00000
              total=     8.00000 ideal(neutral)=     8.00000
<DFT>  Total Spin Moment (muB) =  0.000000000000
<DFT>  Mixing_weight= 0.400000000000
<DFT>  Uele   =   -6.668261448579  dUele     =   0.092507323703
<DFT>  NormRD =    0.052917235216  Criterion =   0.000000036749

******************* MD= 1  SCF= 5 *******************
<Poisson>  Poisson's equation using FFT...
<Set_Hamiltonian>  Hamiltonian matrix for VNA+dVH+Vxc...
<Cluster>  Solving the eigenvalue problem...
    1    H  MulP   0.5000  0.5000 sum   1.0000
    2    H  MulP   0.5000  0.5000 sum   1.0000
    3    H  MulP   0.5000  0.5000 sum   1.0000
    4    H  MulP   0.5000  0.5000 sum   1.0000
    5    H  MulP   0.5000  0.5000 sum   1.0000
    6    H  MulP   0.5000  0.5000 sum   1.0000
    7    H  MulP   0.5000  0.5000 sum   1.0000
    8    H  MulP   0.5000  0.5000 sum   1.0000
 Sum of MulP: up   =     4.00000 down          =     4.00000
              total=     8.00000 ideal(neutral)=     8.00000
<DFT>  Total Spin Moment (muB) =  0.000000000000
<DFT>  Mixing_weight= 0.400000000000
<DFT>  Uele   =   -6.666653209158  dUele     =   0.001608239421
<DFT>  NormRD =    0.030955042598  Criterion =   0.000000036749

******************* MD= 1  SCF= 6 *******************
<Poisson>  Poisson's equation using FFT...
<Set_Hamiltonian>  Hamiltonian matrix for VNA+dVH+Vxc...
<Cluster>  Solving the eigenvalue problem...
    1    H  MulP   0.5000  0.5000 sum   1.0000
    2    H  MulP   0.5000  0.5000 sum   1.0000
    3    H  MulP   0.5000  0.5000 sum   1.0000
    4    H  MulP   0.5000  0.5000 sum   1.0000
    5    H  MulP   0.5000  0.5000 sum   1.0000
    6    H  MulP   0.5000  0.5000 sum   1.0000
    7    H  MulP   0.5000  0.5000 sum   1.0000
    8    H  MulP   0.5000  0.5000 sum   1.0000
 Sum of MulP: up   =     4.00000 down          =     4.00000
              total=     8.00000 ideal(neutral)=     8.00000
<DFT>  Total Spin Moment (muB) =  0.000000000000
<DFT>  Mixing_weight= 0.400000000000
<DFT>  Uele   =   -6.676611409704  dUele     =   0.009958200546
<DFT>  NormRD =    0.023755357321  Criterion =   0.000000036749

******************* MD= 1  SCF= 7 *******************
<Poisson>  Poisson's equation using FFT...
<Set_Hamiltonian>  Hamiltonian matrix for VNA+dVH+Vxc...
<Cluster>  Solving the eigenvalue problem...
    1    H  MulP   0.5000  0.5000 sum   1.0000
    2    H  MulP   0.5000  0.5000 sum   1.0000
    3    H  MulP   0.5000  0.5000 sum   1.0000
    4    H  MulP   0.5000  0.5000 sum   1.0000
    5    H  MulP   0.5000  0.5000 sum   1.0000
    6    H  MulP   0.5000  0.5000 sum   1.0000
    7    H  MulP   0.5000  0.5000 sum   1.0000
    8    H  MulP   0.5000  0.5000 sum   1.0000
 Sum of MulP: up   =     4.00000 down          =     4.00000
              total=     8.00000 ideal(neutral)=     8.00000
<DFT>  Total Spin Moment (muB) =  0.000000000000
<DFT>  Mixing_weight= 0.400000000000
<DFT>  Uele   =   -6.681764022295  dUele     =   0.005152612590
<DFT>  NormRD =    0.017055698029  Criterion =   0.000000036749

******************* MD= 1  SCF= 8 *******************
<Poisson>  Poisson's equation using FFT...
<Set_Hamiltonian>  Hamiltonian matrix for VNA+dVH+Vxc...
<Cluster>  Solving the eigenvalue problem...
    1    H  MulP   0.5000  0.5000 sum   1.0000
    2    H  MulP   0.5000  0.5000 sum   1.0000
    3    H  MulP   0.5000  0.5000 sum   1.0000
    4    H  MulP   0.5000  0.5000 sum   1.0000
    5    H  MulP   0.5000  0.5000 sum   1.0000
    6    H  MulP   0.5000  0.5000 sum   1.0000
    7    H  MulP   0.5000  0.5000 sum   1.0000
    8    H  MulP   0.5000  0.5000 sum   1.0000
 Sum of MulP: up   =     4.00000 down          =     4.00000
              total=     8.00000 ideal(neutral)=     8.00000
<DFT>  Total Spin Moment (muB) =  0.000000000000
<DFT>  Mixing_weight= 0.400000000000
<DFT>  Uele   =   -6.687452487759  dUele     =   0.005688465464
<DFT>  NormRD =    0.003518535317  Criterion =   0.000000036749

******************* MD= 1  SCF= 9 *******************
<Poisson>  Poisson's equation using FFT...
<Set_Hamiltonian>  Hamiltonian matrix for VNA+dVH+Vxc...
<Cluster>  Solving the eigenvalue problem...
    1    H  MulP   0.5000  0.5000 sum   1.0000
    2    H  MulP   0.5000  0.5000 sum   1.0000
    3    H  MulP   0.5000  0.5000 sum   1.0000
    4    H  MulP   0.5000  0.5000 sum   1.0000
    5    H  MulP   0.5000  0.5000 sum   1.0000
    6    H  MulP   0.5000  0.5000 sum   1.0000
    7    H  MulP   0.5000  0.5000 sum   1.0000
    8    H  MulP   0.5000  0.5000 sum   1.0000
 Sum of MulP: up   =     4.00000 down          =     4.00000
              total=     8.00000 ideal(neutral)=     8.00000
<DFT>  Total Spin Moment (muB) =  0.000000000000
<DFT>  Mixing_weight= 0.400000000000
<DFT>  Uele   =   -6.687166954490  dUele     =   0.000285533269
<DFT>  NormRD =    0.000168320339  Criterion =   0.000000036749

******************* MD= 1  SCF=10 *******************
<Poisson>  Poisson's equation using FFT...
<Set_Hamiltonian>  Hamiltonian matrix for VNA+dVH+Vxc...
<Cluster>  Solving the eigenvalue problem...
    1    H  MulP   0.5000  0.5000 sum   1.0000
    2    H  MulP   0.5000  0.5000 sum   1.0000
    3    H  MulP   0.5000  0.5000 sum   1.0000
    4    H  MulP   0.5000  0.5000 sum   1.0000
    5    H  MulP   0.5000  0.5000 sum   1.0000
    6    H  MulP   0.5000  0.5000 sum   1.0000
    7    H  MulP   0.5000  0.5000 sum   1.0000
    8    H  MulP   0.5000  0.5000 sum   1.0000
 Sum of MulP: up   =     4.00000 down          =     4.00000
              total=     8.00000 ideal(neutral)=     8.00000
<DFT>  Total Spin Moment (muB) =  0.000000000000
<DFT>  Mixing_weight= 0.400000000000
<DFT>  Uele   =   -6.687167144388  dUele     =   0.000000189898
<DFT>  NormRD =    0.000000995411  Criterion =   0.000000036749

******************* MD= 1  SCF=11 *******************
<Poisson>  Poisson's equation using FFT...
<Set_Hamiltonian>  Hamiltonian matrix for VNA+dVH+Vxc...
<Cluster>  Solving the eigenvalue problem...
    1    H  MulP   0.5000  0.5000 sum   1.0000
    2    H  MulP   0.5000  0.5000 sum   1.0000
    3    H  MulP   0.5000  0.5000 sum   1.0000
    4    H  MulP   0.5000  0.5000 sum   1.0000
    5    H  MulP   0.5000  0.5000 sum   1.0000
    6    H  MulP   0.5000  0.5000 sum   1.0000
    7    H  MulP   0.5000  0.5000 sum   1.0000
    8    H  MulP   0.5000  0.5000 sum   1.0000
 Sum of MulP: up   =     4.00000 down          =     4.00000
              total=     8.00000 ideal(neutral)=     8.00000
<DFT>  Total Spin Moment (muB) =  0.000000000000
<DFT>  Mixing_weight= 0.400000000000
<DFT>  Uele   =   -6.687167017003  dUele     =   0.000000127384
<DFT>  NormRD =    0.000001030584  Criterion =   0.000000036749

******************* MD= 1  SCF=12 *******************
<Poisson>  Poisson's equation using FFT...
<Set_Hamiltonian>  Hamiltonian matrix for VNA+dVH+Vxc...
<Cluster>  Solving the eigenvalue problem...
    1    H  MulP   0.5000  0.5000 sum   1.0000
    2    H  MulP   0.5000  0.5000 sum   1.0000
    3    H  MulP   0.5000  0.5000 sum   1.0000
    4    H  MulP   0.5000  0.5000 sum   1.0000
    5    H  MulP   0.5000  0.5000 sum   1.0000
    6    H  MulP   0.5000  0.5000 sum   1.0000
    7    H  MulP   0.5000  0.5000 sum   1.0000
    8    H  MulP   0.5000  0.5000 sum   1.0000
 Sum of MulP: up   =     4.00000 down          =     4.00000
              total=     8.00000 ideal(neutral)=     8.00000
<DFT>  Total Spin Moment (muB) =  0.000000000000
<DFT>  Mixing_weight= 0.400000000000
<DFT>  Uele   =   -6.687166943255  dUele     =   0.000000073749
<DFT>  NormRD =    0.000001419642  Criterion =   0.000000036749

******************* MD= 1  SCF=13 *******************
<Poisson>  Poisson's equation using FFT...
<Set_Hamiltonian>  Hamiltonian matrix for VNA+dVH+Vxc...
<Cluster>  Solving the eigenvalue problem...
    1    H  MulP   0.5000  0.5000 sum   1.0000
    2    H  MulP   0.5000  0.5000 sum   1.0000
    3    H  MulP   0.5000  0.5000 sum   1.0000
    4    H  MulP   0.5000  0.5000 sum   1.0000
    5    H  MulP   0.5000  0.5000 sum   1.0000
    6    H  MulP   0.5000  0.5000 sum   1.0000
    7    H  MulP   0.5000  0.5000 sum   1.0000
    8    H  MulP   0.5000  0.5000 sum   1.0000
 Sum of MulP: up   =     4.00000 down          =     4.00000
              total=     8.00000 ideal(neutral)=     8.00000
<DFT>  Total Spin Moment (muB) =  0.000000000000
<DFT>  Mixing_weight= 0.400000000000
<DFT>  Uele   =   -6.687166938622  dUele     =   0.000000004633
<DFT>  NormRD =    0.000000651172  Criterion =   0.000000036749
<MD= 1>  Force calculation
  Force calculation #1
  Force calculation #2
  Force calculation #3
  Force calculation #4
  Force calculation #5
<MD= 1>  Total Energy
  Force calculation #6
  Force calculation #7

*******************************************************
                  Dipole moment (Debye)                 
*******************************************************

 Absolute D        2.74214594

                      Dx                Dy                Dz
 Total              2.74214594       -0.00000003        0.00000001
 Core              67.24489518        0.00000000        0.00000000
 Electron         -64.50274923       -0.00000003        0.00000001
 Back ground       -0.00000000        0.00000000       -0.00000000

*******************************************************
                Total Energy (Hartree) at MD = 1        
*******************************************************

  Uele  =      -6.687166938622

  Ukin  =       6.476052992220
  UH0   =     -23.465223346186
  UH1   =       0.058502374893
  Una   =     -10.593614906815
  Unl   =       1.345174143777
  Uxc0  =      -1.488846148847
  Uxc1  =      -1.488846148847
  Ucore =      26.274375836207
  Uhub  =       0.000000000000
  Ucs   =       0.000000000000
  Uzs   =       0.000000000000
  Uzo   =       0.000000000000
  Uef   =       0.000000000000
  UvdW  =       0.000000000000
  Uch   =       0.000000000000
  Utot  =      -2.882425203599

  UpV   =       0.000000000000
  Enpy  =      -2.882425203599
  Note:

  Uele:   band energy
  Ukin:   kinetic energy
  UH0:    electric part of screened Coulomb energy
  UH1:    difference electron-electron Coulomb energy
  Una:    neutral atom potential energy
  Unl:    non-local potential energy
  Uxc0:   exchange-correlation energy for alpha spin
  Uxc1:   exchange-correlation energy for beta spin
  Ucore:  core-core Coulomb energy
  Uhub:   LDA+U energy
  Ucs:    constraint energy for spin orientation
  Uzs:    Zeeman term for spin magnetic moment
  Uzo:    Zeeman term for orbital magnetic moment
  Uef:    electric energy by electric field
  UvdW:   semi-empirical vdW energy 
  Uch:    penalty term to create a core hole
  UpV:    pressure times volume
  Enpy:   Enthalpy = Utot + UpV
  (see also PRB 72, 045121(2005) for the energy contributions)


*******************************************************
           Computational times (s) at MD = 1            
*******************************************************

  DFT in total      =    2.72379

  Set_OLP_Kin       =    0.42945
  Set_Nonlocal      =    0.35867
  Set_ProExpn_VNA   =    0.75463
  Set_Hamiltonian   =    0.03186
  Poisson           =    0.00410
  diagonalization   =    0.11257
  Mixing_DM         =    0.00306
  Force             =    0.11463
  Total_Energy      =    0.87657
  Set_Aden_Grid     =    0.00735
  Set_Orbitals_Grid =    0.00582
  Set_Density_Grid  =    0.02081
  RestartFileDFT    =    0.00059
  Mulliken_Charge   =    0.00114
  FFT(2D)_Density   =    0.00000

The SCF was achieved at MD=   1

*******************************************************
             MD or geometry opt. at MD = 1              
*******************************************************


outputting data on grids to files...


***********************************************************
***********************************************************
               Computational Time (second)                 
***********************************************************
***********************************************************

                               Min_ID   Min_Time       Max_ID   Max_Time
   Total Computational Time =     3        5.815          0        5.846
   readfile                 =     2        2.749          0        2.749
   truncation               =     0        0.024          3        0.024
   MD_pac                   =     0        0.000          1        0.000
   OutData                  =     2        0.317          0        0.348
   DFT                      =     3        2.723          0        2.724

*** In DFT ***

   Set_OLP_Kin              =     3        0.405          2        0.430
   Set_Nonlocal             =     2        0.358          3        0.384
   Set_ProExpn_VNA          =     3        0.748          2        0.755
   Set_Hamiltonian          =     0        0.032          2        0.032
   Poisson                  =     0        0.004          2        0.004
   Diagonalization          =     2        0.113          1        0.113
   Mixing_DM                =     1        0.003          0        0.003
   Force                    =     1        0.115          0        0.115
   Total_Energy             =     3        0.876          0        0.877
   Set_Aden_Grid            =     2        0.007          3        0.014
   Set_Orbitals_Grid        =     3        0.005          0        0.006
   Set_Density_Grid         =     0        0.021          2        0.021
   RestartFileDFT           =     3        0.001          0        0.001
   Mulliken_Charge          =     1        0.001          0        0.001
   FFT(2D)_Density          =     0        0.000          0        0.000
   Others                   =     2        0.002          0        0.003

The calculation was normally finished.
method=openmx
N = 8
R = 0.5
dir_output = /home/yerin/qdft/hchain/output/N8/openmx_R0.50

System.CurrentDirectory /home/yerin/qdft/hchain/output/N8/openmx_R0.50
System.Name openmx
DATA.PATH /home/yerin/openmx3.9/DFT_DATA19
Species.Number 1
Definition.of.Atomic.Species [['H', 'H6.0-s3p2', 'H_CA19']]
Atoms.Number 8
Atoms.SpeciesAndCoordinates.Unit Ang
Atoms.SpeciesAndCoordinates [['1', 'H', np.float64(0.0), np.float64(0.0), np.float64(0.0), 0.5, 0.5], ['2', 'H', np.float64(0.5), np.float64(0.0), np.float64(0.0), 0.5, 0.5], ['3', 'H', np.float64(1.0), np.float64(0.0), np.float64(0.0), 0.5, 0.5], ['4', 'H', np.float64(1.5), np.float64(0.0), np.float64(0.0), 0.5, 0.5], ['5', 'H', np.float64(2.0), np.float64(0.0), np.float64(0.0), 0.5, 0.5], ['6', 'H', np.float64(2.5), np.float64(0.0), np.float64(0.0), 0.5, 0.5], ['7', 'H', np.float64(3.0), np.float64(0.0), np.float64(0.0), 0.5, 0.5], ['8', 'H', np.float64(3.5), np.float64(0.0), np.float64(0.0), 0.5, 0.5]]
Atoms.UnitVectors.Unit Ang
Atoms.UnitVectors Cell([4.0, 15.0, 15.0])
scf.Kgrid (1, 1, 1)
scf.maxIter 100
scf.ElectronicTemperature 300.0
scf.energycutoff 11.02479674248699
scf.criterion 3.6749322474956636e-08
scf.XcType LDA
scf.EigenvalueSolver cluster
scf.Mixing.Type rmm-diis
run_openmx Done: 0m 7s


The number of threads in each node for OpenMP parallelization is 1.


*******************************************************
*******************************************************
 Welcome to OpenMX   Ver. 3.9.9                           
 Copyright (C), 2002-2019, T. Ozaki                    
 OpenMX comes with ABSOLUTELY NO WARRANTY.             
 This is free software, and you are welcome to         
 redistribute it under the constitution of the GNU-GPL.
*******************************************************
*******************************************************



<Input_std>  Your input file was normally read.
<Input_std>  The system includes 1 species and 8 atoms.

*******************************************************
                     PAO and VPS                       
*******************************************************

<SetPara_DFT>  PAOs of species H were normally found.
<SetPara_DFT>  VPSs of species H were normally found.
               H_CA19.vps is j-dependent.
               In case of scf.SpinOrbit.Coupling=off,
               j-dependent pseudo potentials are averaged by j-degeneracy,
               which corresponds to a scalar relativistic treatment.

*******************************************************
     Fourier transform of PAO and projectors of VNL    
*******************************************************

<FT_PAO>          Fourier transform of pseudo atomic orbitals
<FT_NLP>          Fourier transform of non-local projectors
<FT_ProExpn_VNA>  Fourier transform of VNA separable projectors
<FT_VNA>          Fourier transform of VNA potentials
<FT_ProductPAO>   Fourier transform of product of PAOs

*******************************************************
  Allocation of atoms to processors at MD_iter=    1     
*******************************************************

 proc =   0  # of atoms=   2  estimated weight=         2.00000
 proc =   1  # of atoms=   2  estimated weight=         2.00000
 proc =   2  # of atoms=   2  estimated weight=         2.00000
 proc =   3  # of atoms=   2  estimated weight=         2.00000




*******************************************************
        Analysis of neighbors and setting of grids        
*******************************************************

TFNAN=     154   Average FNAN=  19.25000
TSNAN=       0   Average SNAN=   0.00000
<truncation> CpyCell= 1 ct_AN=   1 FNAN SNAN  18   0
<truncation> CpyCell= 1 ct_AN=   2 FNAN SNAN  19   0
<truncation> CpyCell= 1 ct_AN=   3 FNAN SNAN  20   0
<truncation> CpyCell= 1 ct_AN=   4 FNAN SNAN  20   0
<truncation> CpyCell= 1 ct_AN=   5 FNAN SNAN  20   0
<truncation> CpyCell= 1 ct_AN=   6 FNAN SNAN  20   0
<truncation> CpyCell= 1 ct_AN=   7 FNAN SNAN  19   0
<truncation> CpyCell= 1 ct_AN=   8 FNAN SNAN  18   0
TFNAN=     160   Average FNAN=  20.00000
TSNAN=       0   Average SNAN=   0.00000
<truncation> CpyCell= 2 ct_AN=   1 FNAN SNAN  20   0
<truncation> CpyCell= 2 ct_AN=   2 FNAN SNAN  20   0
<truncation> CpyCell= 2 ct_AN=   3 FNAN SNAN  20   0
<truncation> CpyCell= 2 ct_AN=   4 FNAN SNAN  20   0
<truncation> CpyCell= 2 ct_AN=   5 FNAN SNAN  20   0
<truncation> CpyCell= 2 ct_AN=   6 FNAN SNAN  20   0
<truncation> CpyCell= 2 ct_AN=   7 FNAN SNAN  20   0
<truncation> CpyCell= 2 ct_AN=   8 FNAN SNAN  20   0
TFNAN=     160   Average FNAN=  20.00000
TSNAN=       0   Average SNAN=   0.00000
<truncation> CpyCell= 3 ct_AN=   1 FNAN SNAN  20   0
<truncation> CpyCell= 3 ct_AN=   2 FNAN SNAN  20   0
<truncation> CpyCell= 3 ct_AN=   3 FNAN SNAN  20   0
<truncation> CpyCell= 3 ct_AN=   4 FNAN SNAN  20   0
<truncation> CpyCell= 3 ct_AN=   5 FNAN SNAN  20   0
<truncation> CpyCell= 3 ct_AN=   6 FNAN SNAN  20   0
<truncation> CpyCell= 3 ct_AN=   7 FNAN SNAN  20   0
<truncation> CpyCell= 3 ct_AN=   8 FNAN SNAN  20   0
TFNAN=     160   Average FNAN=  20.00000
TSNAN=       0   Average SNAN=   0.00000
<truncation> CpyCell= 3 ct_AN=   1 FNAN SNAN  20   0
<truncation> CpyCell= 3 ct_AN=   2 FNAN SNAN  20   0
<truncation> CpyCell= 3 ct_AN=   3 FNAN SNAN  20   0
<truncation> CpyCell= 3 ct_AN=   4 FNAN SNAN  20   0
<truncation> CpyCell= 3 ct_AN=   5 FNAN SNAN  20   0
<truncation> CpyCell= 3 ct_AN=   6 FNAN SNAN  20   0
<truncation> CpyCell= 3 ct_AN=   7 FNAN SNAN  20   0
<truncation> CpyCell= 3 ct_AN=   8 FNAN SNAN  20   0
<Check_System> The system is chain.
lattice vectors (bohr)
A  =  9.070684745179,  0.000000000000,  0.000000000000
B  =  0.000000000000, 28.345889828684,  0.000000000000
C  =  0.000000000000,  0.000000000000, 28.345889828684
reciprocal lattice vectors (bohr^-1)
RA =  0.692691399127,  0.000000000000,  0.000000000000
RB =  0.000000000000,  0.221661247721,  0.000000000000
RC =  0.000000000000,  0.000000000000,  0.221661247721
Grid_Origin -0.113383559315 -13.700513417197 -13.700513417197
Cell_Volume =   7288.199680072481 (Bohr^3)
GridVol     =      0.809799964452 (Bohr^3)
Grid_Origin -0.113383559315 -13.700513417197 -13.700513417197
Cell_Volume =   7288.199680072481 (Bohr^3)
GridVol     =      0.809799964452 (Bohr^3)
<UCell_Box> Info. of cutoff energy and num. of grids
lattice vectors (bohr)
A  =  9.070684745179,  0.000000000000,  0.000000000000
B  =  0.000000000000, 28.345889828684,  0.000000000000
C  =  0.000000000000,  0.000000000000, 28.345889828684
reciprocal lattice vectors (bohr^-1)
RA =  0.692691399127,  0.000000000000,  0.000000000000
RB =  0.000000000000,  0.221661247721,  0.000000000000
RC =  0.000000000000,  0.000000000000,  0.221661247721
Required cutoff energy (Ryd) for 3D-grids = 11.0248
    Used cutoff energy (Ryd) for 3D-grids = 11.9955, 11.0551, 11.0551
Num. of grids of a-, b-, and c-axes = 10, 30, 30
Grid_Origin -0.113383559315 -13.700513417197 -13.700513417197
Cell_Volume =   7288.199680072481 (Bohr^3)
GridVol     =      0.809799964452 (Bohr^3)
Cell vectors (bohr) of the grid cell (gtv)
  gtv_a =  0.907068474518,  0.000000000000,  0.000000000000
  gtv_b =  0.000000000000,  0.944862994289,  0.000000000000
  gtv_c =  0.000000000000,  0.000000000000,  0.944862994289
  |gtv_a| =  0.907068474518
  |gtv_b| =  0.944862994289
  |gtv_c| =  0.944862994289
Num. of grids overlapping with atom    1 = 1112
Num. of grids overlapping with atom    2 = 1112
Num. of grids overlapping with atom    3 = 1112
Num. of grids overlapping with atom    4 = 1112
Num. of grids overlapping with atom    5 = 1112
Num. of grids overlapping with atom    6 = 1112
Num. of grids overlapping with atom    7 = 1112
Num. of grids overlapping with atom    8 = 1112

*******************************************************
             SCF calculation at MD = 1                
*******************************************************

<MD= 1>  Calculation of the overlap matrix
<MD= 1>  Calculation of the nonlocal matrix
<MD= 1>  Calculation of the VNA projector matrix

******************* MD= 1  SCF= 1 *******************
<Cluster>  Solving the eigenvalue problem...
    1    H  MulP   0.3299  0.3299 sum   0.6598
    2    H  MulP   0.6701  0.6701 sum   1.3402
    3    H  MulP   0.6701  0.6701 sum   1.3402
    4    H  MulP   0.3299  0.3299 sum   0.6598
    5    H  MulP   0.3299  0.3299 sum   0.6598
    6    H  MulP   0.6701  0.6701 sum   1.3402
    7    H  MulP   0.6701  0.6701 sum   1.3402
    8    H  MulP   0.3299  0.3299 sum   0.6598
 Sum of MulP: up   =     4.00000 down          =     4.00000
              total=     8.00000 ideal(neutral)=     8.00000
<DFT>  Total Spin Moment (muB) =  0.000000000000
<DFT>  Mixing_weight= 0.300000000000
<DFT>  Uele   =   -5.213411034418  dUele     =   1.000000000000
<DFT>  NormRD =    1.000000000000  Criterion =   0.000000036749

******************* MD= 1  SCF= 2 *******************
<Poisson>  Poisson's equation using FFT...
<Set_Hamiltonian>  Hamiltonian matrix for VNA+dVH+Vxc...
<Cluster>  Solving the eigenvalue problem...
    1    H  MulP   0.3273  0.3273 sum   0.6546
    2    H  MulP   0.6727  0.6727 sum   1.3454
    3    H  MulP   0.6727  0.6727 sum   1.3454
    4    H  MulP   0.3273  0.3273 sum   0.6546
    5    H  MulP   0.3273  0.3273 sum   0.6546
    6    H  MulP   0.6727  0.6727 sum   1.3454
    7    H  MulP   0.6727  0.6727 sum   1.3454
    8    H  MulP   0.3273  0.3273 sum   0.6546
 Sum of MulP: up   =     4.00000 down          =     4.00000
              total=     8.00000 ideal(neutral)=     8.00000
<DFT>  Total Spin Moment (muB) =  0.000000000000
<DFT>  Mixing_weight= 0.308456124124
<DFT>  Uele   =   -5.267762828963  dUele     =   0.054351794544
<DFT>  NormRD =    0.165572793443  Criterion =   0.000000036749

******************* MD= 1  SCF= 3 *******************
<Poisson>  Poisson's equation using FFT...
<Set_Hamiltonian>  Hamiltonian matrix for VNA+dVH+Vxc...
<Cluster>  Solving the eigenvalue problem...
    1    H  MulP   0.3249  0.3249 sum   0.6499
    2    H  MulP   0.6751  0.6751 sum   1.3501
    3    H  MulP   0.6751  0.6751 sum   1.3501
    4    H  MulP   0.3249  0.3249 sum   0.6499
    5    H  MulP   0.3249  0.3249 sum   0.6499
    6    H  MulP   0.6751  0.6751 sum   1.3501
    7    H  MulP   0.6751  0.6751 sum   1.3501
    8    H  MulP   0.3249  0.3249 sum   0.6499
 Sum of MulP: up   =     4.00000 down          =     4.00000
              total=     8.00000 ideal(neutral)=     8.00000
<DFT>  Total Spin Moment (muB) =  0.000000000000
<DFT>  Mixing_weight= 0.400000000000
<DFT>  Uele   =   -5.318868965283  dUele     =   0.051106136320
<DFT>  NormRD =    0.116382885586  Criterion =   0.000000036749

******************* MD= 1  SCF= 4 *******************
<Poisson>  Poisson's equation using FFT...
<Set_Hamiltonian>  Hamiltonian matrix for VNA+dVH+Vxc...
<Cluster>  Solving the eigenvalue problem...
    1    H  MulP   0.3214  0.3214 sum   0.6428
    2    H  MulP   0.6786  0.6786 sum   1.3572
    3    H  MulP   0.6786  0.6786 sum   1.3572
    4    H  MulP   0.3214  0.3214 sum   0.6428
    5    H  MulP   0.3214  0.3214 sum   0.6428
    6    H  MulP   0.6786  0.6786 sum   1.3572
    7    H  MulP   0.6786  0.6786 sum   1.3572
    8    H  MulP   0.3214  0.3214 sum   0.6428
 Sum of MulP: up   =     4.00000 down          =     4.00000
              total=     8.00000 ideal(neutral)=     8.00000
<DFT>  Total Spin Moment (muB) =  0.000000000000
<DFT>  Mixing_weight= 0.188547936738
<DFT>  Uele   =   -5.400275156152  dUele     =   0.081406190869
<DFT>  NormRD =    0.123249223634  Criterion =   0.000000036749

******************* MD= 1  SCF= 5 *******************
<Poisson>  Poisson's equation using FFT...
<Set_Hamiltonian>  Hamiltonian matrix for VNA+dVH+Vxc...
<Cluster>  Solving the eigenvalue problem...
    1    H  MulP   0.3214  0.3214 sum   0.6428
    2    H  MulP   0.6786  0.6786 sum   1.3572
    3    H  MulP   0.6786  0.6786 sum   1.3572
    4    H  MulP   0.3214  0.3214 sum   0.6428
    5    H  MulP   0.3214  0.3214 sum   0.6428
    6    H  MulP   0.6786  0.6786 sum   1.3572
    7    H  MulP   0.6786  0.6786 sum   1.3572
    8    H  MulP   0.3214  0.3214 sum   0.6428
 Sum of MulP: up   =     4.00000 down          =     4.00000
              total=     8.00000 ideal(neutral)=     8.00000
<DFT>  Total Spin Moment (muB) =  0.000000000000
<DFT>  Mixing_weight= 0.400000000000
<DFT>  Uele   =   -5.397616035119  dUele     =   0.002659121033
<DFT>  NormRD =    0.095682359275  Criterion =   0.000000036749

******************* MD= 1  SCF= 6 *******************
<Poisson>  Poisson's equation using FFT...
<Set_Hamiltonian>  Hamiltonian matrix for VNA+dVH+Vxc...
<Cluster>  Solving the eigenvalue problem...
    1    H  MulP   0.3214  0.3214 sum   0.6428
    2    H  MulP   0.6786  0.6786 sum   1.3572
    3    H  MulP   0.6786  0.6786 sum   1.3572
    4    H  MulP   0.3214  0.3214 sum   0.6428
    5    H  MulP   0.3214  0.3214 sum   0.6428
    6    H  MulP   0.6786  0.6786 sum   1.3572
    7    H  MulP   0.6786  0.6786 sum   1.3572
    8    H  MulP   0.3214  0.3214 sum   0.6428
 Sum of MulP: up   =     4.00000 down          =     4.00000
              total=     8.00000 ideal(neutral)=     8.00000
<DFT>  Total Spin Moment (muB) =  0.000000000000
<DFT>  Mixing_weight= 0.400000000000
<DFT>  Uele   =   -5.401290211486  dUele     =   0.003674176367
<DFT>  NormRD =    0.063552188069  Criterion =   0.000000036749

******************* MD= 1  SCF= 7 *******************
<Poisson>  Poisson's equation using FFT...
<Set_Hamiltonian>  Hamiltonian matrix for VNA+dVH+Vxc...
<Cluster>  Solving the eigenvalue problem...
    1    H  MulP   0.3214  0.3214 sum   0.6427
    2    H  MulP   0.6786  0.6786 sum   1.3573
    3    H  MulP   0.6786  0.6786 sum   1.3573
    4    H  MulP   0.3214  0.3214 sum   0.6427
    5    H  MulP   0.3214  0.3214 sum   0.6427
    6    H  MulP   0.6786  0.6786 sum   1.3573
    7    H  MulP   0.6786  0.6786 sum   1.3573
    8    H  MulP   0.3214  0.3214 sum   0.6427
 Sum of MulP: up   =     4.00000 down          =     4.00000
              total=     8.00000 ideal(neutral)=     8.00000
<DFT>  Total Spin Moment (muB) =  0.000000000000
<DFT>  Mixing_weight= 0.400000000000
<DFT>  Uele   =   -5.403154640225  dUele     =   0.001864428739
<DFT>  NormRD =    0.041411419924  Criterion =   0.000000036749

******************* MD= 1  SCF= 8 *******************
<Poisson>  Poisson's equation using FFT...
<Set_Hamiltonian>  Hamiltonian matrix for VNA+dVH+Vxc...
<Cluster>  Solving the eigenvalue problem...
    1    H  MulP   0.3213  0.3213 sum   0.6427
    2    H  MulP   0.6787  0.6787 sum   1.3573
    3    H  MulP   0.6787  0.6787 sum   1.3573
    4    H  MulP   0.3213  0.3213 sum   0.6427
    5    H  MulP   0.3213  0.3213 sum   0.6427
    6    H  MulP   0.6787  0.6787 sum   1.3573
    7    H  MulP   0.6787  0.6787 sum   1.3573
    8    H  MulP   0.3213  0.3213 sum   0.6427
 Sum of MulP: up   =     4.00000 down          =     4.00000
              total=     8.00000 ideal(neutral)=     8.00000
<DFT>  Total Spin Moment (muB) =  0.000000000000
<DFT>  Mixing_weight= 0.400000000000
<DFT>  Uele   =   -5.405247800675  dUele     =   0.002093160450
<DFT>  NormRD =    0.002026140935  Criterion =   0.000000036749

******************* MD= 1  SCF= 9 *******************
<Poisson>  Poisson's equation using FFT...
<Set_Hamiltonian>  Hamiltonian matrix for VNA+dVH+Vxc...
<Cluster>  Solving the eigenvalue problem...
    1    H  MulP   0.3213  0.3213 sum   0.6427
    2    H  MulP   0.6787  0.6787 sum   1.3573
    3    H  MulP   0.6787  0.6787 sum   1.3573
    4    H  MulP   0.3213  0.3213 sum   0.6427
    5    H  MulP   0.3213  0.3213 sum   0.6427
    6    H  MulP   0.6787  0.6787 sum   1.3573
    7    H  MulP   0.6787  0.6787 sum   1.3573
    8    H  MulP   0.3213  0.3213 sum   0.6427
 Sum of MulP: up   =     4.00000 down          =     4.00000
              total=     8.00000 ideal(neutral)=     8.00000
<DFT>  Total Spin Moment (muB) =  0.000000000000
<DFT>  Mixing_weight= 0.400000000000
<DFT>  Uele   =   -5.404976210141  dUele     =   0.000271590535
<DFT>  NormRD =    0.000158799554  Criterion =   0.000000036749

******************* MD= 1  SCF=10 *******************
<Poisson>  Poisson's equation using FFT...
<Set_Hamiltonian>  Hamiltonian matrix for VNA+dVH+Vxc...
<Cluster>  Solving the eigenvalue problem...
    1    H  MulP   0.3213  0.3213 sum   0.6427
    2    H  MulP   0.6787  0.6787 sum   1.3573
    3    H  MulP   0.6787  0.6787 sum   1.3573
    4    H  MulP   0.3213  0.3213 sum   0.6427
    5    H  MulP   0.3213  0.3213 sum   0.6427
    6    H  MulP   0.6787  0.6787 sum   1.3573
    7    H  MulP   0.6787  0.6787 sum   1.3573
    8    H  MulP   0.3213  0.3213 sum   0.6427
 Sum of MulP: up   =     4.00000 down          =     4.00000
              total=     8.00000 ideal(neutral)=     8.00000
<DFT>  Total Spin Moment (muB) =  0.000000000000
<DFT>  Mixing_weight= 0.400000000000
<DFT>  Uele   =   -5.404989747709  dUele     =   0.000013537569
<DFT>  NormRD =    0.000013503376  Criterion =   0.000000036749

******************* MD= 1  SCF=11 *******************
<Poisson>  Poisson's equation using FFT...
<Set_Hamiltonian>  Hamiltonian matrix for VNA+dVH+Vxc...
<Cluster>  Solving the eigenvalue problem...
    1    H  MulP   0.3213  0.3213 sum   0.6427
    2    H  MulP   0.6787  0.6787 sum   1.3573
    3    H  MulP   0.6787  0.6787 sum   1.3573
    4    H  MulP   0.3213  0.3213 sum   0.6427
    5    H  MulP   0.3213  0.3213 sum   0.6427
    6    H  MulP   0.6787  0.6787 sum   1.3573
    7    H  MulP   0.6787  0.6787 sum   1.3573
    8    H  MulP   0.3213  0.3213 sum   0.6427
 Sum of MulP: up   =     4.00000 down          =     4.00000
              total=     8.00000 ideal(neutral)=     8.00000
<DFT>  Total Spin Moment (muB) =  0.000000000000
<DFT>  Mixing_weight= 0.400000000000
<DFT>  Uele   =   -5.404989787373  dUele     =   0.000000039664
<DFT>  NormRD =    0.000001539629  Criterion =   0.000000036749

******************* MD= 1  SCF=12 *******************
<Poisson>  Poisson's equation using FFT...
<Set_Hamiltonian>  Hamiltonian matrix for VNA+dVH+Vxc...
<Cluster>  Solving the eigenvalue problem...
    1    H  MulP   0.3213  0.3213 sum   0.6427
    2    H  MulP   0.6787  0.6787 sum   1.3573
    3    H  MulP   0.6787  0.6787 sum   1.3573
    4    H  MulP   0.3213  0.3213 sum   0.6427
    5    H  MulP   0.3213  0.3213 sum   0.6427
    6    H  MulP   0.6787  0.6787 sum   1.3573
    7    H  MulP   0.6787  0.6787 sum   1.3573
    8    H  MulP   0.3213  0.3213 sum   0.6427
 Sum of MulP: up   =     4.00000 down          =     4.00000
              total=     8.00000 ideal(neutral)=     8.00000
<DFT>  Total Spin Moment (muB) =  0.000000000000
<DFT>  Mixing_weight= 0.400000000000
<DFT>  Uele   =   -5.404989739648  dUele     =   0.000000047725
<DFT>  NormRD =    0.000001878906  Criterion =   0.000000036749

******************* MD= 1  SCF=13 *******************
<Poisson>  Poisson's equation using FFT...
<Set_Hamiltonian>  Hamiltonian matrix for VNA+dVH+Vxc...
<Cluster>  Solving the eigenvalue problem...
    1    H  MulP   0.3213  0.3213 sum   0.6427
    2    H  MulP   0.6787  0.6787 sum   1.3573
    3    H  MulP   0.6787  0.6787 sum   1.3573
    4    H  MulP   0.3213  0.3213 sum   0.6427
    5    H  MulP   0.3213  0.3213 sum   0.6427
    6    H  MulP   0.6787  0.6787 sum   1.3573
    7    H  MulP   0.6787  0.6787 sum   1.3573
    8    H  MulP   0.3213  0.3213 sum   0.6427
 Sum of MulP: up   =     4.00000 down          =     4.00000
              total=     8.00000 ideal(neutral)=     8.00000
<DFT>  Total Spin Moment (muB) =  0.000000000000
<DFT>  Mixing_weight= 0.400000000000
<DFT>  Uele   =   -5.404989729532  dUele     =   0.000000010116
<DFT>  NormRD =    0.000000507076  Criterion =   0.000000036749
<MD= 1>  Force calculation
  Force calculation #1
  Force calculation #2
  Force calculation #3
  Force calculation #4
  Force calculation #5
<MD= 1>  Total Energy
  Force calculation #6
  Force calculation #7

*******************************************************
                  Dipole moment (Debye)                 
*******************************************************

 Absolute D        2.56784370

                      Dx                Dy                Dz
 Total              2.56784370        0.00000000       -0.00000000
 Core              80.69387421        0.00000000        0.00000000
 Electron         -78.12603051        0.00000000       -0.00000000
 Back ground       -0.00000000        0.00000000       -0.00000000

*******************************************************
                Total Energy (Hartree) at MD = 1        
*******************************************************

  Uele  =      -5.404989729532

  Ukin  =       5.313006616503
  UH0   =     -19.611547727093
  UH1   =       0.024676650298
  Una   =      -8.089059905451
  Unl   =       1.006080304196
  Uxc0  =      -1.386314577684
  Uxc1  =      -1.386314577684
  Ucore =      20.665911507243
  Uhub  =       0.000000000000
  Ucs   =       0.000000000000
  Uzs   =       0.000000000000
  Uzo   =       0.000000000000
  Uef   =       0.000000000000
  UvdW  =       0.000000000000
  Uch   =       0.000000000000
  Utot  =      -3.463561709671

  UpV   =       0.000000000000
  Enpy  =      -3.463561709671
  Note:

  Uele:   band energy
  Ukin:   kinetic energy
  UH0:    electric part of screened Coulomb energy
  UH1:    difference electron-electron Coulomb energy
  Una:    neutral atom potential energy
  Unl:    non-local potential energy
  Uxc0:   exchange-correlation energy for alpha spin
  Uxc1:   exchange-correlation energy for beta spin
  Ucore:  core-core Coulomb energy
  Uhub:   LDA+U energy
  Ucs:    constraint energy for spin orientation
  Uzs:    Zeeman term for spin magnetic moment
  Uzo:    Zeeman term for orbital magnetic moment
  Uef:    electric energy by electric field
  UvdW:   semi-empirical vdW energy 
  Uch:    penalty term to create a core hole
  UpV:    pressure times volume
  Enpy:   Enthalpy = Utot + UpV
  (see also PRB 72, 045121(2005) for the energy contributions)


*******************************************************
           Computational times (s) at MD = 1            
*******************************************************

  DFT in total      =    2.34038

  Set_OLP_Kin       =    0.37654
  Set_Nonlocal      =    0.29950
  Set_ProExpn_VNA   =    0.64434
  Set_Hamiltonian   =    0.02803
  Poisson           =    0.00450
  diagonalization   =    0.18073
  Mixing_DM         =    0.00268
  Force             =    0.08127
  Total_Energy      =    0.68427
  Set_Aden_Grid     =    0.01070
  Set_Orbitals_Grid =    0.00539
  Set_Density_Grid  =    0.01853
  RestartFileDFT    =    0.00052
  Mulliken_Charge   =    0.00118
  FFT(2D)_Density   =    0.00000

The SCF was achieved at MD=   1

*******************************************************
             MD or geometry opt. at MD = 1              
*******************************************************


outputting data on grids to files...


***********************************************************
***********************************************************
               Computational Time (second)                 
***********************************************************
***********************************************************

                               Min_ID   Min_Time       Max_ID   Max_Time
   Total Computational Time =     2        5.276          0        5.314
   readfile                 =     1        2.671          0        2.671
   truncation               =     3        0.019          0        0.019
   MD_pac                   =     0        0.000          3        0.000
   OutData                  =     1        0.243          0        0.282
   DFT                      =     2        2.340          3        2.341

*** In DFT ***

   Set_OLP_Kin              =     1        0.351          0        0.377
   Set_Nonlocal             =     0        0.299          1        0.325
   Set_ProExpn_VNA          =     3        0.639          2        0.648
   Set_Hamiltonian          =     1        0.028          2        0.028
   Poisson                  =     0        0.005          3        0.005
   Diagonalization          =     0        0.181          2        0.181
   Mixing_DM                =     2        0.003          1        0.003
   Force                    =     2        0.081          0        0.081
   Total_Energy             =     2        0.684          0        0.684
   Set_Aden_Grid            =     2        0.007          3        0.016
   Set_Orbitals_Grid        =     3        0.005          0        0.005
   Set_Density_Grid         =     2        0.018          0        0.019
   RestartFileDFT           =     0        0.001          1        0.001
   Mulliken_Charge          =     1        0.001          3        0.001
   FFT(2D)_Density          =     0        0.000          0        0.000
   Others                   =     0        0.002          3        0.003

The calculation was normally finished.
method=openmx
N = 8
R = 0.6
dir_output = /home/yerin/qdft/hchain/output/N8/openmx_R0.60

System.CurrentDirectory /home/yerin/qdft/hchain/output/N8/openmx_R0.60
System.Name openmx
DATA.PATH /home/yerin/openmx3.9/DFT_DATA19
Species.Number 1
Definition.of.Atomic.Species [['H', 'H6.0-s3p2', 'H_CA19']]
Atoms.Number 8
Atoms.SpeciesAndCoordinates.Unit Ang
Atoms.SpeciesAndCoordinates [['1', 'H', np.float64(0.0), np.float64(0.0), np.float64(0.0), 0.5, 0.5], ['2', 'H', np.float64(0.6), np.float64(0.0), np.float64(0.0), 0.5, 0.5], ['3', 'H', np.float64(1.2), np.float64(0.0), np.float64(0.0), 0.5, 0.5], ['4', 'H', np.float64(1.7999999999999998), np.float64(0.0), np.float64(0.0), 0.5, 0.5], ['5', 'H', np.float64(2.4), np.float64(0.0), np.float64(0.0), 0.5, 0.5], ['6', 'H', np.float64(3.0), np.float64(0.0), np.float64(0.0), 0.5, 0.5], ['7', 'H', np.float64(3.5999999999999996), np.float64(0.0), np.float64(0.0), 0.5, 0.5], ['8', 'H', np.float64(4.2), np.float64(0.0), np.float64(0.0), 0.5, 0.5]]
Atoms.UnitVectors.Unit Ang
Atoms.UnitVectors Cell([4.8, 15.0, 15.0])
scf.Kgrid (1, 1, 1)
scf.maxIter 100
scf.ElectronicTemperature 300.0
scf.energycutoff 11.02479674248699
scf.criterion 3.6749322474956636e-08
scf.XcType LDA
scf.EigenvalueSolver cluster
scf.Mixing.Type rmm-diis
run_openmx Done: 0m 6s


The number of threads in each node for OpenMP parallelization is 1.


*******************************************************
*******************************************************
 Welcome to OpenMX   Ver. 3.9.9                           
 Copyright (C), 2002-2019, T. Ozaki                    
 OpenMX comes with ABSOLUTELY NO WARRANTY.             
 This is free software, and you are welcome to         
 redistribute it under the constitution of the GNU-GPL.
*******************************************************
*******************************************************



<Input_std>  Your input file was normally read.
<Input_std>  The system includes 1 species and 8 atoms.

*******************************************************
                     PAO and VPS                       
*******************************************************

<SetPara_DFT>  PAOs of species H were normally found.
<SetPara_DFT>  VPSs of species H were normally found.
               H_CA19.vps is j-dependent.
               In case of scf.SpinOrbit.Coupling=off,
               j-dependent pseudo potentials are averaged by j-degeneracy,
               which corresponds to a scalar relativistic treatment.

*******************************************************
     Fourier transform of PAO and projectors of VNL    
*******************************************************

<FT_PAO>          Fourier transform of pseudo atomic orbitals
<FT_NLP>          Fourier transform of non-local projectors
<FT_ProExpn_VNA>  Fourier transform of VNA separable projectors
<FT_VNA>          Fourier transform of VNA potentials
<FT_ProductPAO>   Fourier transform of product of PAOs

*******************************************************
  Allocation of atoms to processors at MD_iter=    1     
*******************************************************

 proc =   0  # of atoms=   2  estimated weight=         2.00000
 proc =   1  # of atoms=   2  estimated weight=         2.00000
 proc =   2  # of atoms=   2  estimated weight=         2.00000
 proc =   3  # of atoms=   2  estimated weight=         2.00000




*******************************************************
        Analysis of neighbors and setting of grids        
*******************************************************

TFNAN=     142   Average FNAN=  17.75000
TSNAN=       0   Average SNAN=   0.00000
<truncation> CpyCell= 1 ct_AN=   1 FNAN SNAN  17   0
<truncation> CpyCell= 1 ct_AN=   2 FNAN SNAN  18   0
<truncation> CpyCell= 1 ct_AN=   3 FNAN SNAN  18   0
<truncation> CpyCell= 1 ct_AN=   4 FNAN SNAN  18   0
<truncation> CpyCell= 1 ct_AN=   5 FNAN SNAN  18   0
<truncation> CpyCell= 1 ct_AN=   6 FNAN SNAN  18   0
<truncation> CpyCell= 1 ct_AN=   7 FNAN SNAN  18   0
<truncation> CpyCell= 1 ct_AN=   8 FNAN SNAN  17   0
TFNAN=     144   Average FNAN=  18.00000
TSNAN=       0   Average SNAN=   0.00000
<truncation> CpyCell= 2 ct_AN=   1 FNAN SNAN  18   0
<truncation> CpyCell= 2 ct_AN=   2 FNAN SNAN  18   0
<truncation> CpyCell= 2 ct_AN=   3 FNAN SNAN  18   0
<truncation> CpyCell= 2 ct_AN=   4 FNAN SNAN  18   0
<truncation> CpyCell= 2 ct_AN=   5 FNAN SNAN  18   0
<truncation> CpyCell= 2 ct_AN=   6 FNAN SNAN  18   0
<truncation> CpyCell= 2 ct_AN=   7 FNAN SNAN  18   0
<truncation> CpyCell= 2 ct_AN=   8 FNAN SNAN  18   0
TFNAN=     144   Average FNAN=  18.00000
TSNAN=       0   Average SNAN=   0.00000
<truncation> CpyCell= 3 ct_AN=   1 FNAN SNAN  18   0
<truncation> CpyCell= 3 ct_AN=   2 FNAN SNAN  18   0
<truncation> CpyCell= 3 ct_AN=   3 FNAN SNAN  18   0
<truncation> CpyCell= 3 ct_AN=   4 FNAN SNAN  18   0
<truncation> CpyCell= 3 ct_AN=   5 FNAN SNAN  18   0
<truncation> CpyCell= 3 ct_AN=   6 FNAN SNAN  18   0
<truncation> CpyCell= 3 ct_AN=   7 FNAN SNAN  18   0
<truncation> CpyCell= 3 ct_AN=   8 FNAN SNAN  18   0
TFNAN=     144   Average FNAN=  18.00000
TSNAN=       0   Average SNAN=   0.00000
<truncation> CpyCell= 3 ct_AN=   1 FNAN SNAN  18   0
<truncation> CpyCell= 3 ct_AN=   2 FNAN SNAN  18   0
<truncation> CpyCell= 3 ct_AN=   3 FNAN SNAN  18   0
<truncation> CpyCell= 3 ct_AN=   4 FNAN SNAN  18   0
<truncation> CpyCell= 3 ct_AN=   5 FNAN SNAN  18   0
<truncation> CpyCell= 3 ct_AN=   6 FNAN SNAN  18   0
<truncation> CpyCell= 3 ct_AN=   7 FNAN SNAN  18   0
<truncation> CpyCell= 3 ct_AN=   8 FNAN SNAN  18   0
<Check_System> The system is chain.
lattice vectors (bohr)
A  = 10.582465536042,  0.000000000000,  0.000000000000
B  =  0.000000000000, 28.345889828684,  0.000000000000
C  =  0.000000000000,  0.000000000000, 28.345889828684
reciprocal lattice vectors (bohr^-1)
RA =  0.593735484966,  0.000000000000,  0.000000000000
RB =  0.000000000000,  0.221661247721,  0.000000000000
RC =  0.000000000000,  0.000000000000,  0.221661247721
Grid_Origin -0.220468032001 -13.700513417197 -13.700513417197
Cell_Volume =   8502.899626751228 (Bohr^3)
GridVol     =      0.787305520995 (Bohr^3)
Grid_Origin -0.220468032001 -13.700513417197 -13.700513417197
Cell_Volume =   8502.899626751228 (Bohr^3)
GridVol     =      0.787305520995 (Bohr^3)
<UCell_Box> Info. of cutoff energy and num. of grids
lattice vectors (bohr)
A  = 10.582465536042,  0.000000000000,  0.000000000000
B  =  0.000000000000, 28.345889828684,  0.000000000000
C  =  0.000000000000,  0.000000000000, 28.345889828684
reciprocal lattice vectors (bohr^-1)
RA =  0.593735484966,  0.000000000000,  0.000000000000
RB =  0.000000000000,  0.221661247721,  0.000000000000
RC =  0.000000000000,  0.000000000000,  0.221661247721
Required cutoff energy (Ryd) for 3D-grids = 11.0248
    Used cutoff energy (Ryd) for 3D-grids = 12.6908, 11.0551, 11.0551
Num. of grids of a-, b-, and c-axes = 12, 30, 30
Grid_Origin -0.220468032001 -13.700513417197 -13.700513417197
Cell_Volume =   8502.899626751228 (Bohr^3)
GridVol     =      0.787305520995 (Bohr^3)
Cell vectors (bohr) of the grid cell (gtv)
  gtv_a =  0.881872128003,  0.000000000000,  0.000000000000
  gtv_b =  0.000000000000,  0.944862994289,  0.000000000000
  gtv_c =  0.000000000000,  0.000000000000,  0.944862994289
  |gtv_a| =  0.881872128003
  |gtv_b| =  0.944862994289
  |gtv_c| =  0.944862994289
Num. of grids overlapping with atom    1 = 1140
Num. of grids overlapping with atom    2 = 1140
Num. of grids overlapping with atom    3 = 1140
Num. of grids overlapping with atom    4 = 1140
Num. of grids overlapping with atom    5 = 1140
Num. of grids overlapping with atom    6 = 1140
Num. of grids overlapping with atom    7 = 1140
Num. of grids overlapping with atom    8 = 1140

*******************************************************
             SCF calculation at MD = 1                
*******************************************************

<MD= 1>  Calculation of the overlap matrix
<MD= 1>  Calculation of the nonlocal matrix
<MD= 1>  Calculation of the VNA projector matrix

******************* MD= 1  SCF= 1 *******************
<Cluster>  Solving the eigenvalue problem...
    1    H  MulP   0.5000  0.5000 sum   1.0000
    2    H  MulP   0.5000  0.5000 sum   1.0000
    3    H  MulP   0.5000  0.5000 sum   1.0000
    4    H  MulP   0.5000  0.5000 sum   1.0000
    5    H  MulP   0.5000  0.5000 sum   1.0000
    6    H  MulP   0.5000  0.5000 sum   1.0000
    7    H  MulP   0.5000  0.5000 sum   1.0000
    8    H  MulP   0.5000  0.5000 sum   1.0000
 Sum of MulP: up   =     4.00000 down          =     4.00000
              total=     8.00000 ideal(neutral)=     8.00000
<DFT>  Total Spin Moment (muB) =  0.000000000000
<DFT>  Mixing_weight= 0.300000000000
<DFT>  Uele   =   -4.552185082565  dUele     =   1.000000000000
<DFT>  NormRD =    1.000000000000  Criterion =   0.000000036749

******************* MD= 1  SCF= 2 *******************
<Poisson>  Poisson's equation using FFT...
<Set_Hamiltonian>  Hamiltonian matrix for VNA+dVH+Vxc...
<Cluster>  Solving the eigenvalue problem...
    1    H  MulP   0.5000  0.5000 sum   1.0000
    2    H  MulP   0.5000  0.5000 sum   1.0000
    3    H  MulP   0.5000  0.5000 sum   1.0000
    4    H  MulP   0.5000  0.5000 sum   1.0000
    5    H  MulP   0.5000  0.5000 sum   1.0000
    6    H  MulP   0.5000  0.5000 sum   1.0000
    7    H  MulP   0.5000  0.5000 sum   1.0000
    8    H  MulP   0.5000  0.5000 sum   1.0000
 Sum of MulP: up   =     4.00000 down          =     4.00000
              total=     8.00000 ideal(neutral)=     8.00000
<DFT>  Total Spin Moment (muB) =  0.000000000000
<DFT>  Mixing_weight= 0.400000000000
<DFT>  Uele   =   -3.993203604534  dUele     =   0.558981478031
<DFT>  NormRD =    0.658405803158  Criterion =   0.000000036749

******************* MD= 1  SCF= 3 *******************
<Poisson>  Poisson's equation using FFT...
<Set_Hamiltonian>  Hamiltonian matrix for VNA+dVH+Vxc...
<Cluster>  Solving the eigenvalue problem...
    1    H  MulP   0.5000  0.5000 sum   1.0000
    2    H  MulP   0.5000  0.5000 sum   1.0000
    3    H  MulP   0.5000  0.5000 sum   1.0000
    4    H  MulP   0.5000  0.5000 sum   1.0000
    5    H  MulP   0.5000  0.5000 sum   1.0000
    6    H  MulP   0.5000  0.5000 sum   1.0000
    7    H  MulP   0.5000  0.5000 sum   1.0000
    8    H  MulP   0.5000  0.5000 sum   1.0000
 Sum of MulP: up   =     4.00000 down          =     4.00000
              total=     8.00000 ideal(neutral)=     8.00000
<DFT>  Total Spin Moment (muB) =  0.000000000000
<DFT>  Mixing_weight= 0.400000000000
<DFT>  Uele   =   -3.690363912278  dUele     =   0.302839692256
<DFT>  NormRD =    0.357042656082  Criterion =   0.000000036749

******************* MD= 1  SCF= 4 *******************
<Poisson>  Poisson's equation using FFT...
<Set_Hamiltonian>  Hamiltonian matrix for VNA+dVH+Vxc...
<Cluster>  Solving the eigenvalue problem...
    1    H  MulP   0.5000  0.5000 sum   1.0000
    2    H  MulP   0.5000  0.5000 sum   1.0000
    3    H  MulP   0.5000  0.5000 sum   1.0000
    4    H  MulP   0.5000  0.5000 sum   1.0000
    5    H  MulP   0.5000  0.5000 sum   1.0000
    6    H  MulP   0.5000  0.5000 sum   1.0000
    7    H  MulP   0.5000  0.5000 sum   1.0000
    8    H  MulP   0.5000  0.5000 sum   1.0000
 Sum of MulP: up   =     4.00000 down          =     4.00000
              total=     8.00000 ideal(neutral)=     8.00000
<DFT>  Total Spin Moment (muB) =  0.000000000000
<DFT>  Mixing_weight= 0.001200667673
<DFT>  Uele   =   -3.291317865620  dUele     =   0.399046046658
<DFT>  NormRD =    6.507076418514  Criterion =   0.000000036749

******************* MD= 1  SCF= 5 *******************
<Poisson>  Poisson's equation using FFT...
<Set_Hamiltonian>  Hamiltonian matrix for VNA+dVH+Vxc...
<Cluster>  Solving the eigenvalue problem...
    1    H  MulP   0.5000  0.5000 sum   1.0000
    2    H  MulP   0.5000  0.5000 sum   1.0000
    3    H  MulP   0.5000  0.5000 sum   1.0000
    4    H  MulP   0.5000  0.5000 sum   1.0000
    5    H  MulP   0.5000  0.5000 sum   1.0000
    6    H  MulP   0.5000  0.5000 sum   1.0000
    7    H  MulP   0.5000  0.5000 sum   1.0000
    8    H  MulP   0.5000  0.5000 sum   1.0000
 Sum of MulP: up   =     4.00000 down          =     4.00000
              total=     8.00000 ideal(neutral)=     8.00000
<DFT>  Total Spin Moment (muB) =  0.000000000000
<DFT>  Mixing_weight= 0.001000000000
<DFT>  Uele   =   -3.251301549868  dUele     =   0.040016315751
<DFT>  NormRD =    7.137076399788  Criterion =   0.000000036749

******************* MD= 1  SCF= 6 *******************
<Poisson>  Poisson's equation using FFT...
<Set_Hamiltonian>  Hamiltonian matrix for VNA+dVH+Vxc...
<Cluster>  Solving the eigenvalue problem...
    1    H  MulP   0.5000  0.5000 sum   1.0000
    2    H  MulP   0.5000  0.5000 sum   1.0000
    3    H  MulP   0.5000  0.5000 sum   1.0000
    4    H  MulP   0.5000  0.5000 sum   1.0000
    5    H  MulP   0.5000  0.5000 sum   1.0000
    6    H  MulP   0.5000  0.5000 sum   1.0000
    7    H  MulP   0.5000  0.5000 sum   1.0000
    8    H  MulP   0.5000  0.5000 sum   1.0000
 Sum of MulP: up   =     4.00000 down          =     4.00000
              total=     8.00000 ideal(neutral)=     8.00000
<DFT>  Total Spin Moment (muB) =  0.000000000000
<DFT>  Mixing_weight= 0.001000000000
<DFT>  Uele   =   -3.253025331533  dUele     =   0.001723781664
<DFT>  NormRD =    7.126949938833  Criterion =   0.000000036749

******************* MD= 1  SCF= 7 *******************
<Poisson>  Poisson's equation using FFT...
<Set_Hamiltonian>  Hamiltonian matrix for VNA+dVH+Vxc...
<Cluster>  Solving the eigenvalue problem...
    1    H  MulP   0.5000  0.5000 sum   1.0000
    2    H  MulP   0.5000  0.5000 sum   1.0000
    3    H  MulP   0.5000  0.5000 sum   1.0000
    4    H  MulP   0.5000  0.5000 sum   1.0000
    5    H  MulP   0.5000  0.5000 sum   1.0000
    6    H  MulP   0.5000  0.5000 sum   1.0000
    7    H  MulP   0.5000  0.5000 sum   1.0000
    8    H  MulP   0.5000  0.5000 sum   1.0000
 Sum of MulP: up   =     4.00000 down          =     4.00000
              total=     8.00000 ideal(neutral)=     8.00000
<DFT>  Total Spin Moment (muB) =  0.000000000000
<DFT>  Mixing_weight= 0.001000000000
<DFT>  Uele   =   -3.254745102503  dUele     =   0.001719770970
<DFT>  NormRD =    7.116613767848  Criterion =   0.000000036749

******************* MD= 1  SCF= 8 *******************
<Poisson>  Poisson's equation using FFT...
<Set_Hamiltonian>  Hamiltonian matrix for VNA+dVH+Vxc...
<Cluster>  Solving the eigenvalue problem...
    1    H  MulP   0.5000  0.5000 sum   1.0000
    2    H  MulP   0.5000  0.5000 sum   1.0000
    3    H  MulP   0.5000  0.5000 sum   1.0000
    4    H  MulP   0.5000  0.5000 sum   1.0000
    5    H  MulP   0.5000  0.5000 sum   1.0000
    6    H  MulP   0.5000  0.5000 sum   1.0000
    7    H  MulP   0.5000  0.5000 sum   1.0000
    8    H  MulP   0.5000  0.5000 sum   1.0000
 Sum of MulP: up   =     4.00000 down          =     4.00000
              total=     8.00000 ideal(neutral)=     8.00000
<DFT>  Total Spin Moment (muB) =  0.000000000000
<DFT>  Mixing_weight= 0.001000000000
<DFT>  Uele   =   -4.424564822816  dUele     =   1.169819720313
<DFT>  NormRD =    5.483607530973  Criterion =   0.000000036749

******************* MD= 1  SCF= 9 *******************
<Poisson>  Poisson's equation using FFT...
<Set_Hamiltonian>  Hamiltonian matrix for VNA+dVH+Vxc...
<Cluster>  Solving the eigenvalue problem...
    1    H  MulP   0.5000  0.5000 sum   1.0000
    2    H  MulP   0.5000  0.5000 sum   1.0000
    3    H  MulP   0.5000  0.5000 sum   1.0000
    4    H  MulP   0.5000  0.5000 sum   1.0000
    5    H  MulP   0.5000  0.5000 sum   1.0000
    6    H  MulP   0.5000  0.5000 sum   1.0000
    7    H  MulP   0.5000  0.5000 sum   1.0000
    8    H  MulP   0.5000  0.5000 sum   1.0000
 Sum of MulP: up   =     4.00000 down          =     4.00000
              total=     8.00000 ideal(neutral)=     8.00000
<DFT>  Total Spin Moment (muB) =  0.000000000000
<DFT>  Mixing_weight= 0.001000000000
<DFT>  Uele   =   -4.024974170941  dUele     =   0.399590651875
<DFT>  NormRD =    2.988019086904  Criterion =   0.000000036749

******************* MD= 1  SCF=10 *******************
<Poisson>  Poisson's equation using FFT...
<Set_Hamiltonian>  Hamiltonian matrix for VNA+dVH+Vxc...
<Cluster>  Solving the eigenvalue problem...
    1    H  MulP   0.5000  0.5000 sum   1.0000
    2    H  MulP   0.5000  0.5000 sum   1.0000
    3    H  MulP   0.5000  0.5000 sum   1.0000
    4    H  MulP   0.5000  0.5000 sum   1.0000
    5    H  MulP   0.5000  0.5000 sum   1.0000
    6    H  MulP   0.5000  0.5000 sum   1.0000
    7    H  MulP   0.5000  0.5000 sum   1.0000
    8    H  MulP   0.5000  0.5000 sum   1.0000
 Sum of MulP: up   =     4.00000 down          =     4.00000
              total=     8.00000 ideal(neutral)=     8.00000
<DFT>  Total Spin Moment (muB) =  0.000000000000
<DFT>  Mixing_weight= 0.001000000000
<DFT>  Uele   =   -3.935306464758  dUele     =   0.089667706183
<DFT>  NormRD =    2.508234302587  Criterion =   0.000000036749

******************* MD= 1  SCF=11 *******************
<Poisson>  Poisson's equation using FFT...
<Set_Hamiltonian>  Hamiltonian matrix for VNA+dVH+Vxc...
<Cluster>  Solving the eigenvalue problem...
    1    H  MulP   0.5000  0.5000 sum   1.0000
    2    H  MulP   0.5000  0.5000 sum   1.0000
    3    H  MulP   0.5000  0.5000 sum   1.0000
    4    H  MulP   0.5000  0.5000 sum   1.0000
    5    H  MulP   0.5000  0.5000 sum   1.0000
    6    H  MulP   0.5000  0.5000 sum   1.0000
    7    H  MulP   0.5000  0.5000 sum   1.0000
    8    H  MulP   0.5000  0.5000 sum   1.0000
 Sum of MulP: up   =     4.00000 down          =     4.00000
              total=     8.00000 ideal(neutral)=     8.00000
<DFT>  Total Spin Moment (muB) =  0.000000000000
<DFT>  Mixing_weight= 0.001000000000
<DFT>  Uele   =   -3.931844106074  dUele     =   0.003462358684
<DFT>  NormRD =    2.493598530879  Criterion =   0.000000036749

******************* MD= 1  SCF=12 *******************
<Poisson>  Poisson's equation using FFT...
<Set_Hamiltonian>  Hamiltonian matrix for VNA+dVH+Vxc...
<Cluster>  Solving the eigenvalue problem...
    1    H  MulP   0.5000  0.5000 sum   1.0000
    2    H  MulP   0.5000  0.5000 sum   1.0000
    3    H  MulP   0.5000  0.5000 sum   1.0000
    4    H  MulP   0.5000  0.5000 sum   1.0000
    5    H  MulP   0.5000  0.5000 sum   1.0000
    6    H  MulP   0.5000  0.5000 sum   1.0000
    7    H  MulP   0.5000  0.5000 sum   1.0000
    8    H  MulP   0.5000  0.5000 sum   1.0000
 Sum of MulP: up   =     4.00000 down          =     4.00000
              total=     8.00000 ideal(neutral)=     8.00000
<DFT>  Total Spin Moment (muB) =  0.000000000000
<DFT>  Mixing_weight= 0.001000000000
<DFT>  Uele   =   -3.034736494722  dUele     =   0.897107611353
<DFT>  NormRD =    2.611050812088  Criterion =   0.000000036749

******************* MD= 1  SCF=13 *******************
<Poisson>  Poisson's equation using FFT...
<Set_Hamiltonian>  Hamiltonian matrix for VNA+dVH+Vxc...
<Cluster>  Solving the eigenvalue problem...
    1    H  MulP   0.5000  0.5000 sum   1.0000
    2    H  MulP   0.5000  0.5000 sum   1.0000
    3    H  MulP   0.5000  0.5000 sum   1.0000
    4    H  MulP   0.5000  0.5000 sum   1.0000
    5    H  MulP   0.5000  0.5000 sum   1.0000
    6    H  MulP   0.5000  0.5000 sum   1.0000
    7    H  MulP   0.5000  0.5000 sum   1.0000
    8    H  MulP   0.5000  0.5000 sum   1.0000
 Sum of MulP: up   =     4.00000 down          =     4.00000
              total=     8.00000 ideal(neutral)=     8.00000
<DFT>  Total Spin Moment (muB) =  0.000000000000
<DFT>  Mixing_weight= 0.001000000000
<DFT>  Uele   =   -3.383134479411  dUele     =   0.348397984690
<DFT>  NormRD =    0.770383963560  Criterion =   0.000000036749

******************* MD= 1  SCF=14 *******************
<Poisson>  Poisson's equation using FFT...
<Set_Hamiltonian>  Hamiltonian matrix for VNA+dVH+Vxc...
<Cluster>  Solving the eigenvalue problem...
    1    H  MulP   0.5000  0.5000 sum   1.0000
    2    H  MulP   0.5000  0.5000 sum   1.0000
    3    H  MulP   0.5000  0.5000 sum   1.0000
    4    H  MulP   0.5000  0.5000 sum   1.0000
    5    H  MulP   0.5000  0.5000 sum   1.0000
    6    H  MulP   0.5000  0.5000 sum   1.0000
    7    H  MulP   0.5000  0.5000 sum   1.0000
    8    H  MulP   0.5000  0.5000 sum   1.0000
 Sum of MulP: up   =     4.00000 down          =     4.00000
              total=     8.00000 ideal(neutral)=     8.00000
<DFT>  Total Spin Moment (muB) =  0.000000000000
<DFT>  Mixing_weight= 0.001000000000
<DFT>  Uele   =   -3.582710186603  dUele     =   0.199575707191
<DFT>  NormRD =    0.870627225162  Criterion =   0.000000036749

******************* MD= 1  SCF=15 *******************
<Poisson>  Poisson's equation using FFT...
<Set_Hamiltonian>  Hamiltonian matrix for VNA+dVH+Vxc...
<Cluster>  Solving the eigenvalue problem...
    1    H  MulP   0.5000  0.5000 sum   1.0000
    2    H  MulP   0.5000  0.5000 sum   1.0000
    3    H  MulP   0.5000  0.5000 sum   1.0000
    4    H  MulP   0.5000  0.5000 sum   1.0000
    5    H  MulP   0.5000  0.5000 sum   1.0000
    6    H  MulP   0.5000  0.5000 sum   1.0000
    7    H  MulP   0.5000  0.5000 sum   1.0000
    8    H  MulP   0.5000  0.5000 sum   1.0000
 Sum of MulP: up   =     4.00000 down          =     4.00000
              total=     8.00000 ideal(neutral)=     8.00000
<DFT>  Total Spin Moment (muB) =  0.000000000000
<DFT>  Mixing_weight= 0.001000000000
<DFT>  Uele   =   -3.493130405525  dUele     =   0.089579781078
<DFT>  NormRD =    0.469922090772  Criterion =   0.000000036749

******************* MD= 1  SCF=16 *******************
<Poisson>  Poisson's equation using FFT...
<Set_Hamiltonian>  Hamiltonian matrix for VNA+dVH+Vxc...
<Cluster>  Solving the eigenvalue problem...
    1    H  MulP   0.5000  0.5000 sum   1.0000
    2    H  MulP   0.5000  0.5000 sum   1.0000
    3    H  MulP   0.5000  0.5000 sum   1.0000
    4    H  MulP   0.5000  0.5000 sum   1.0000
    5    H  MulP   0.5000  0.5000 sum   1.0000
    6    H  MulP   0.5000  0.5000 sum   1.0000
    7    H  MulP   0.5000  0.5000 sum   1.0000
    8    H  MulP   0.5000  0.5000 sum   1.0000
 Sum of MulP: up   =     4.00000 down          =     4.00000
              total=     8.00000 ideal(neutral)=     8.00000
<DFT>  Total Spin Moment (muB) =  0.000000000000
<DFT>  Mixing_weight= 0.001000000000
<DFT>  Uele   =   -3.457398725817  dUele     =   0.035731679708
<DFT>  NormRD =    0.288049718805  Criterion =   0.000000036749

******************* MD= 1  SCF=17 *******************
<Poisson>  Poisson's equation using FFT...
<Set_Hamiltonian>  Hamiltonian matrix for VNA+dVH+Vxc...
<Cluster>  Solving the eigenvalue problem...
    1    H  MulP   0.5000  0.5000 sum   1.0000
    2    H  MulP   0.5000  0.5000 sum   1.0000
    3    H  MulP   0.5000  0.5000 sum   1.0000
    4    H  MulP   0.5000  0.5000 sum   1.0000
    5    H  MulP   0.5000  0.5000 sum   1.0000
    6    H  MulP   0.5000  0.5000 sum   1.0000
    7    H  MulP   0.5000  0.5000 sum   1.0000
    8    H  MulP   0.5000  0.5000 sum   1.0000
 Sum of MulP: up   =     4.00000 down          =     4.00000
              total=     8.00000 ideal(neutral)=     8.00000
<DFT>  Total Spin Moment (muB) =  0.000000000000
<DFT>  Mixing_weight= 0.001000000000
<DFT>  Uele   =   -3.426193952990  dUele     =   0.031204772826
<DFT>  NormRD =    0.047573245470  Criterion =   0.000000036749

******************* MD= 1  SCF=18 *******************
<Poisson>  Poisson's equation using FFT...
<Set_Hamiltonian>  Hamiltonian matrix for VNA+dVH+Vxc...
<Cluster>  Solving the eigenvalue problem...
    1    H  MulP   0.5000  0.5000 sum   1.0000
    2    H  MulP   0.5000  0.5000 sum   1.0000
    3    H  MulP   0.5000  0.5000 sum   1.0000
    4    H  MulP   0.5000  0.5000 sum   1.0000
    5    H  MulP   0.5000  0.5000 sum   1.0000
    6    H  MulP   0.5000  0.5000 sum   1.0000
    7    H  MulP   0.5000  0.5000 sum   1.0000
    8    H  MulP   0.5000  0.5000 sum   1.0000
 Sum of MulP: up   =     4.00000 down          =     4.00000
              total=     8.00000 ideal(neutral)=     8.00000
<DFT>  Total Spin Moment (muB) =  0.000000000000
<DFT>  Mixing_weight= 0.001000000000
<DFT>  Uele   =   -3.431071149519  dUele     =   0.004877196529
<DFT>  NormRD =    0.083339678777  Criterion =   0.000000036749

******************* MD= 1  SCF=19 *******************
<Poisson>  Poisson's equation using FFT...
<Set_Hamiltonian>  Hamiltonian matrix for VNA+dVH+Vxc...
<Cluster>  Solving the eigenvalue problem...
    1    H  MulP   0.5000  0.5000 sum   1.0000
    2    H  MulP   0.5000  0.5000 sum   1.0000
    3    H  MulP   0.5000  0.5000 sum   1.0000
    4    H  MulP   0.5000  0.5000 sum   1.0000
    5    H  MulP   0.5000  0.5000 sum   1.0000
    6    H  MulP   0.5000  0.5000 sum   1.0000
    7    H  MulP   0.5000  0.5000 sum   1.0000
    8    H  MulP   0.5000  0.5000 sum   1.0000
 Sum of MulP: up   =     4.00000 down          =     4.00000
              total=     8.00000 ideal(neutral)=     8.00000
<DFT>  Total Spin Moment (muB) =  0.000000000000
<DFT>  Mixing_weight= 0.001000000000
<DFT>  Uele   =   -3.428788678034  dUele     =   0.002282471485
<DFT>  NormRD =    0.061553193011  Criterion =   0.000000036749

******************* MD= 1  SCF=20 *******************
<Poisson>  Poisson's equation using FFT...
<Set_Hamiltonian>  Hamiltonian matrix for VNA+dVH+Vxc...
<Cluster>  Solving the eigenvalue problem...
    1    H  MulP   0.5000  0.5000 sum   1.0000
    2    H  MulP   0.5000  0.5000 sum   1.0000
    3    H  MulP   0.5000  0.5000 sum   1.0000
    4    H  MulP   0.5000  0.5000 sum   1.0000
    5    H  MulP   0.5000  0.5000 sum   1.0000
    6    H  MulP   0.5000  0.5000 sum   1.0000
    7    H  MulP   0.5000  0.5000 sum   1.0000
    8    H  MulP   0.5000  0.5000 sum   1.0000
 Sum of MulP: up   =     4.00000 down          =     4.00000
              total=     8.00000 ideal(neutral)=     8.00000
<DFT>  Total Spin Moment (muB) =  0.000000000000
<DFT>  Mixing_weight= 0.001000000000
<DFT>  Uele   =   -3.424685677878  dUele     =   0.004103000156
<DFT>  NormRD =    0.021294551972  Criterion =   0.000000036749

******************* MD= 1  SCF=21 *******************
<Poisson>  Poisson's equation using FFT...
<Set_Hamiltonian>  Hamiltonian matrix for VNA+dVH+Vxc...
<Cluster>  Solving the eigenvalue problem...
    1    H  MulP   0.5000  0.5000 sum   1.0000
    2    H  MulP   0.5000  0.5000 sum   1.0000
    3    H  MulP   0.5000  0.5000 sum   1.0000
    4    H  MulP   0.5000  0.5000 sum   1.0000
    5    H  MulP   0.5000  0.5000 sum   1.0000
    6    H  MulP   0.5000  0.5000 sum   1.0000
    7    H  MulP   0.5000  0.5000 sum   1.0000
    8    H  MulP   0.5000  0.5000 sum   1.0000
 Sum of MulP: up   =     4.00000 down          =     4.00000
              total=     8.00000 ideal(neutral)=     8.00000
<DFT>  Total Spin Moment (muB) =  0.000000000000
<DFT>  Mixing_weight= 0.001000000000
<DFT>  Uele   =   -3.421162594995  dUele     =   0.003523082883
<DFT>  NormRD =    0.017562928130  Criterion =   0.000000036749

******************* MD= 1  SCF=22 *******************
<Poisson>  Poisson's equation using FFT...
<Set_Hamiltonian>  Hamiltonian matrix for VNA+dVH+Vxc...
<Cluster>  Solving the eigenvalue problem...
    1    H  MulP   0.5000  0.5000 sum   1.0000
    2    H  MulP   0.5000  0.5000 sum   1.0000
    3    H  MulP   0.5000  0.5000 sum   1.0000
    4    H  MulP   0.5000  0.5000 sum   1.0000
    5    H  MulP   0.5000  0.5000 sum   1.0000
    6    H  MulP   0.5000  0.5000 sum   1.0000
    7    H  MulP   0.5000  0.5000 sum   1.0000
    8    H  MulP   0.5000  0.5000 sum   1.0000
 Sum of MulP: up   =     4.00000 down          =     4.00000
              total=     8.00000 ideal(neutral)=     8.00000
<DFT>  Total Spin Moment (muB) =  0.000000000000
<DFT>  Mixing_weight= 0.001000000000
<DFT>  Uele   =   -3.422899268451  dUele     =   0.001736673456
<DFT>  NormRD =    0.001798459908  Criterion =   0.000000036749

******************* MD= 1  SCF=23 *******************
<Poisson>  Poisson's equation using FFT...
<Set_Hamiltonian>  Hamiltonian matrix for VNA+dVH+Vxc...
<Cluster>  Solving the eigenvalue problem...
    1    H  MulP   0.5000  0.5000 sum   1.0000
    2    H  MulP   0.5000  0.5000 sum   1.0000
    3    H  MulP   0.5000  0.5000 sum   1.0000
    4    H  MulP   0.5000  0.5000 sum   1.0000
    5    H  MulP   0.5000  0.5000 sum   1.0000
    6    H  MulP   0.5000  0.5000 sum   1.0000
    7    H  MulP   0.5000  0.5000 sum   1.0000
    8    H  MulP   0.5000  0.5000 sum   1.0000
 Sum of MulP: up   =     4.00000 down          =     4.00000
              total=     8.00000 ideal(neutral)=     8.00000
<DFT>  Total Spin Moment (muB) =  0.000000000000
<DFT>  Mixing_weight= 0.001000000000
<DFT>  Uele   =   -3.422804045752  dUele     =   0.000095222699
<DFT>  NormRD =    0.000723671501  Criterion =   0.000000036749

******************* MD= 1  SCF=24 *******************
<Poisson>  Poisson's equation using FFT...
<Set_Hamiltonian>  Hamiltonian matrix for VNA+dVH+Vxc...
<Cluster>  Solving the eigenvalue problem...
    1    H  MulP   0.5000  0.5000 sum   1.0000
    2    H  MulP   0.5000  0.5000 sum   1.0000
    3    H  MulP   0.5000  0.5000 sum   1.0000
    4    H  MulP   0.5000  0.5000 sum   1.0000
    5    H  MulP   0.5000  0.5000 sum   1.0000
    6    H  MulP   0.5000  0.5000 sum   1.0000
    7    H  MulP   0.5000  0.5000 sum   1.0000
    8    H  MulP   0.5000  0.5000 sum   1.0000
 Sum of MulP: up   =     4.00000 down          =     4.00000
              total=     8.00000 ideal(neutral)=     8.00000
<DFT>  Total Spin Moment (muB) =  0.000000000000
<DFT>  Mixing_weight= 0.001000000000
<DFT>  Uele   =   -3.422743988176  dUele     =   0.000060057575
<DFT>  NormRD =    0.000037300557  Criterion =   0.000000036749

******************* MD= 1  SCF=25 *******************
<Poisson>  Poisson's equation using FFT...
<Set_Hamiltonian>  Hamiltonian matrix for VNA+dVH+Vxc...
<Cluster>  Solving the eigenvalue problem...
    1    H  MulP   0.5000  0.5000 sum   1.0000
    2    H  MulP   0.5000  0.5000 sum   1.0000
    3    H  MulP   0.5000  0.5000 sum   1.0000
    4    H  MulP   0.5000  0.5000 sum   1.0000
    5    H  MulP   0.5000  0.5000 sum   1.0000
    6    H  MulP   0.5000  0.5000 sum   1.0000
    7    H  MulP   0.5000  0.5000 sum   1.0000
    8    H  MulP   0.5000  0.5000 sum   1.0000
 Sum of MulP: up   =     4.00000 down          =     4.00000
              total=     8.00000 ideal(neutral)=     8.00000
<DFT>  Total Spin Moment (muB) =  0.000000000000
<DFT>  Mixing_weight= 0.001000000000
<DFT>  Uele   =   -3.422741210410  dUele     =   0.000002777766
<DFT>  NormRD =    0.000009405550  Criterion =   0.000000036749

******************* MD= 1  SCF=26 *******************
<Poisson>  Poisson's equation using FFT...
<Set_Hamiltonian>  Hamiltonian matrix for VNA+dVH+Vxc...
<Cluster>  Solving the eigenvalue problem...
    1    H  MulP   0.5000  0.5000 sum   1.0000
    2    H  MulP   0.5000  0.5000 sum   1.0000
[...]
Num. of grids overlapping with atom    2 = 1064
Num. of grids overlapping with atom    3 = 1064
Num. of grids overlapping with atom    4 = 1064
Num. of grids overlapping with atom    5 = 1064
Num. of grids overlapping with atom    6 = 1064
Num. of grids overlapping with atom    7 = 1064
Num. of grids overlapping with atom    8 = 1064

*******************************************************
             SCF calculation at MD = 1                
*******************************************************

<MD= 1>  Calculation of the overlap matrix
<MD= 1>  Calculation of the nonlocal matrix
<MD= 1>  Calculation of the VNA projector matrix

******************* MD= 1  SCF= 1 *******************
<Cluster>  Solving the eigenvalue problem...
    1    H  MulP   0.5000  0.5000 sum   1.0000
    2    H  MulP   0.5000  0.5000 sum   1.0000
    3    H  MulP   0.5000  0.5000 sum   1.0000
    4    H  MulP   0.5000  0.5000 sum   1.0000
    5    H  MulP   0.5000  0.5000 sum   1.0000
    6    H  MulP   0.5000  0.5000 sum   1.0000
    7    H  MulP   0.5000  0.5000 sum   1.0000
    8    H  MulP   0.5000  0.5000 sum   1.0000
 Sum of MulP: up   =     4.00000 down          =     4.00000
              total=     8.00000 ideal(neutral)=     8.00000
<DFT>  Total Spin Moment (muB) =  0.000000000000
<DFT>  Mixing_weight= 0.300000000000
<DFT>  Uele   =   -1.789466516609  dUele     =   1.000000000000
<DFT>  NormRD =    1.000000000000  Criterion =   0.000000036749

******************* MD= 1  SCF= 2 *******************
<Poisson>  Poisson's equation using FFT...
<Set_Hamiltonian>  Hamiltonian matrix for VNA+dVH+Vxc...
<Cluster>  Solving the eigenvalue problem...
    1    H  MulP   0.5000  0.5000 sum   1.0000
    2    H  MulP   0.5000  0.5000 sum   1.0000
    3    H  MulP   0.5000  0.5000 sum   1.0000
    4    H  MulP   0.5000  0.5000 sum   1.0000
    5    H  MulP   0.5000  0.5000 sum   1.0000
    6    H  MulP   0.5000  0.5000 sum   1.0000
    7    H  MulP   0.5000  0.5000 sum   1.0000
    8    H  MulP   0.5000  0.5000 sum   1.0000
 Sum of MulP: up   =     4.00000 down          =     4.00000
              total=     8.00000 ideal(neutral)=     8.00000
<DFT>  Total Spin Moment (muB) =  0.000000000000
<DFT>  Mixing_weight= 0.300340754200
<DFT>  Uele   =   -1.814894080937  dUele     =   0.025427564328
<DFT>  NormRD =    0.033683210161  Criterion =   0.000000036749

******************* MD= 1  SCF= 3 *******************
<Poisson>  Poisson's equation using FFT...
<Set_Hamiltonian>  Hamiltonian matrix for VNA+dVH+Vxc...
<Cluster>  Solving the eigenvalue problem...
    1    H  MulP   0.5000  0.5000 sum   1.0000
    2    H  MulP   0.5000  0.5000 sum   1.0000
    3    H  MulP   0.5000  0.5000 sum   1.0000
    4    H  MulP   0.5000  0.5000 sum   1.0000
    5    H  MulP   0.5000  0.5000 sum   1.0000
    6    H  MulP   0.5000  0.5000 sum   1.0000
    7    H  MulP   0.5000  0.5000 sum   1.0000
    8    H  MulP   0.5000  0.5000 sum   1.0000
 Sum of MulP: up   =     4.00000 down          =     4.00000
              total=     8.00000 ideal(neutral)=     8.00000
<DFT>  Total Spin Moment (muB) =  0.000000000000
<DFT>  Mixing_weight= 0.400000000000
<DFT>  Uele   =   -1.838173048911  dUele     =   0.023278967974
<DFT>  NormRD =    0.023169642216  Criterion =   0.000000036749

******************* MD= 1  SCF= 4 *******************
<Poisson>  Poisson's equation using FFT...
<Set_Hamiltonian>  Hamiltonian matrix for VNA+dVH+Vxc...
<Cluster>  Solving the eigenvalue problem...
    1    H  MulP   0.5000  0.5000 sum   1.0000
    2    H  MulP   0.5000  0.5000 sum   1.0000
    3    H  MulP   0.5000  0.5000 sum   1.0000
    4    H  MulP   0.5000  0.5000 sum   1.0000
    5    H  MulP   0.5000  0.5000 sum   1.0000
    6    H  MulP   0.5000  0.5000 sum   1.0000
    7    H  MulP   0.5000  0.5000 sum   1.0000
    8    H  MulP   0.5000  0.5000 sum   1.0000
 Sum of MulP: up   =     4.00000 down          =     4.00000
              total=     8.00000 ideal(neutral)=     8.00000
<DFT>  Total Spin Moment (muB) =  0.000000000000
<DFT>  Mixing_weight= 0.400000000000
<DFT>  Uele   =   -1.872135080236  dUele     =   0.033962031325
<DFT>  NormRD =    0.005762323380  Criterion =   0.000000036749

******************* MD= 1  SCF= 5 *******************
<Poisson>  Poisson's equation using FFT...
<Set_Hamiltonian>  Hamiltonian matrix for VNA+dVH+Vxc...
<Cluster>  Solving the eigenvalue problem...
    1    H  MulP   0.5002  0.5002 sum   1.0004
    2    H  MulP   0.4998  0.4998 sum   0.9996
    3    H  MulP   0.5002  0.5002 sum   1.0004
    4    H  MulP   0.4998  0.4998 sum   0.9996
    5    H  MulP   0.5002  0.5002 sum   1.0004
    6    H  MulP   0.4998  0.4998 sum   0.9996
    7    H  MulP   0.5002  0.5002 sum   1.0004
    8    H  MulP   0.4998  0.4998 sum   0.9996
 Sum of MulP: up   =     4.00000 down          =     4.00000
              total=     8.00000 ideal(neutral)=     8.00000
<DFT>  Total Spin Moment (muB) =  0.000000000000
<DFT>  Mixing_weight= 0.400000000000
<DFT>  Uele   =   -1.872151953619  dUele     =   0.000016873383
<DFT>  NormRD =    0.003542150490  Criterion =   0.000000036749

******************* MD= 1  SCF= 6 *******************
<Poisson>  Poisson's equation using FFT...
<Set_Hamiltonian>  Hamiltonian matrix for VNA+dVH+Vxc...
<Cluster>  Solving the eigenvalue problem...
    1    H  MulP   0.4977  0.4977 sum   0.9954
    2    H  MulP   0.5023  0.5023 sum   1.0046
    3    H  MulP   0.4977  0.4977 sum   0.9954
    4    H  MulP   0.5023  0.5023 sum   1.0046
    5    H  MulP   0.4977  0.4977 sum   0.9954
    6    H  MulP   0.5023  0.5023 sum   1.0046
    7    H  MulP   0.4977  0.4977 sum   0.9954
    8    H  MulP   0.5023  0.5023 sum   1.0046
 Sum of MulP: up   =     4.00000 down          =     4.00000
              total=     8.00000 ideal(neutral)=     8.00000
<DFT>  Total Spin Moment (muB) =  0.000000000000
<DFT>  Mixing_weight= 0.400000000000
<DFT>  Uele   =   -1.871575767197  dUele     =   0.000576186422
<DFT>  NormRD =    0.009835998833  Criterion =   0.000000036749

******************* MD= 1  SCF= 7 *******************
<Poisson>  Poisson's equation using FFT...
<Set_Hamiltonian>  Hamiltonian matrix for VNA+dVH+Vxc...
<Cluster>  Solving the eigenvalue problem...
    1    H  MulP   0.5285  0.5285 sum   1.0571
    2    H  MulP   0.4714  0.4714 sum   0.9428
    3    H  MulP   0.5285  0.5285 sum   1.0569
    4    H  MulP   0.4714  0.4714 sum   0.9429
    5    H  MulP   0.5285  0.5285 sum   1.0571
    6    H  MulP   0.4715  0.4715 sum   0.9430
    7    H  MulP   0.5286  0.5286 sum   1.0572
    8    H  MulP   0.4715  0.4715 sum   0.9430
 Sum of MulP: up   =     4.00000 down          =     4.00000
              total=     8.00000 ideal(neutral)=     8.00000
<DFT>  Total Spin Moment (muB) =  0.000000000000
<DFT>  Mixing_weight= 0.400000000000
<DFT>  Uele   =   -1.871388041221  dUele     =   0.000187725976
<DFT>  NormRD =    0.119590358628  Criterion =   0.000000036749

******************* MD= 1  SCF= 8 *******************
<Poisson>  Poisson's equation using FFT...
<Set_Hamiltonian>  Hamiltonian matrix for VNA+dVH+Vxc...
<Cluster>  Solving the eigenvalue problem...
    1    H  MulP   0.4999  0.4999 sum   0.9998
    2    H  MulP   0.5001  0.5001 sum   1.0001
    3    H  MulP   0.4998  0.4998 sum   0.9997
    4    H  MulP   0.5001  0.5001 sum   1.0002
    5    H  MulP   0.4999  0.4999 sum   0.9998
    6    H  MulP   0.5001  0.5001 sum   1.0003
    7    H  MulP   0.4999  0.4999 sum   0.9999
    8    H  MulP   0.5001  0.5001 sum   1.0003
 Sum of MulP: up   =     4.00000 down          =     4.00000
              total=     8.00000 ideal(neutral)=     8.00000
<DFT>  Total Spin Moment (muB) =  0.000000000000
<DFT>  Mixing_weight= 0.400000000000
<DFT>  Uele   =   -1.871058408055  dUele     =   0.000329633166
<DFT>  NormRD =    0.000908602225  Criterion =   0.000000036749

******************* MD= 1  SCF= 9 *******************
<Poisson>  Poisson's equation using FFT...
<Set_Hamiltonian>  Hamiltonian matrix for VNA+dVH+Vxc...
<Cluster>  Solving the eigenvalue problem...
    1    H  MulP   0.5003  0.5003 sum   1.0006
    2    H  MulP   0.5010  0.5010 sum   1.0019
    3    H  MulP   0.5016  0.5016 sum   1.0032
    4    H  MulP   0.5005  0.5005 sum   1.0010
    5    H  MulP   0.4999  0.4999 sum   0.9998
    6    H  MulP   0.4989  0.4989 sum   0.9978
    7    H  MulP   0.4989  0.4989 sum   0.9977
    8    H  MulP   0.4990  0.4990 sum   0.9980
 Sum of MulP: up   =     4.00000 down          =     4.00000
              total=     8.00000 ideal(neutral)=     8.00000
<DFT>  Total Spin Moment (muB) =  0.000000000000
<DFT>  Mixing_weight= 0.400000000000
<DFT>  Uele   =   -1.870765263553  dUele     =   0.000293144502
<DFT>  NormRD =    0.003942083516  Criterion =   0.000000036749

******************* MD= 1  SCF=10 *******************
<Poisson>  Poisson's equation using FFT...
<Set_Hamiltonian>  Hamiltonian matrix for VNA+dVH+Vxc...
<Cluster>  Solving the eigenvalue problem...
    1    H  MulP   0.5001  0.5001 sum   1.0003
    2    H  MulP   0.4999  0.4999 sum   0.9997
    3    H  MulP   0.5002  0.5002 sum   1.0003
    4    H  MulP   0.4998  0.4998 sum   0.9996
    5    H  MulP   0.5001  0.5001 sum   1.0003
    6    H  MulP   0.4999  0.4999 sum   0.9998
    7    H  MulP   0.5002  0.5002 sum   1.0003
    8    H  MulP   0.4998  0.4998 sum   0.9997
 Sum of MulP: up   =     4.00000 down          =     4.00000
              total=     8.00000 ideal(neutral)=     8.00000
<DFT>  Total Spin Moment (muB) =  0.000000000000
<DFT>  Mixing_weight= 0.400000000000
<DFT>  Uele   =   -1.870765321193  dUele     =   0.000000057641
<DFT>  NormRD =    0.000642659909  Criterion =   0.000000036749

******************* MD= 1  SCF=11 *******************
<Poisson>  Poisson's equation using FFT...
<Set_Hamiltonian>  Hamiltonian matrix for VNA+dVH+Vxc...
<Cluster>  Solving the eigenvalue problem...
    1    H  MulP   0.5001  0.5001 sum   1.0003
    2    H  MulP   0.4999  0.4999 sum   0.9998
    3    H  MulP   0.4999  0.4999 sum   0.9999
    4    H  MulP   0.5001  0.5001 sum   1.0002
    5    H  MulP   0.5001  0.5001 sum   1.0002
    6    H  MulP   0.4998  0.4998 sum   0.9996
    7    H  MulP   0.5000  0.5000 sum   1.0001
    8    H  MulP   0.5000  0.5000 sum   1.0000
 Sum of MulP: up   =     4.00000 down          =     4.00000
              total=     8.00000 ideal(neutral)=     8.00000
<DFT>  Total Spin Moment (muB) =  0.000000000000
<DFT>  Mixing_weight= 0.400000000000
<DFT>  Uele   =   -1.870764657148  dUele     =   0.000000664045
<DFT>  NormRD =    0.000416736445  Criterion =   0.000000036749

******************* MD= 1  SCF=12 *******************
<Poisson>  Poisson's equation using FFT...
<Set_Hamiltonian>  Hamiltonian matrix for VNA+dVH+Vxc...
<Cluster>  Solving the eigenvalue problem...
    1    H  MulP   0.5000  0.5000 sum   0.9999
    2    H  MulP   0.5000  0.5000 sum   1.0001
    3    H  MulP   0.5000  0.5000 sum   0.9999
    4    H  MulP   0.5000  0.5000 sum   1.0001
    5    H  MulP   0.5000  0.5000 sum   0.9999
    6    H  MulP   0.5001  0.5001 sum   1.0001
    7    H  MulP   0.4999  0.4999 sum   0.9999
    8    H  MulP   0.5001  0.5001 sum   1.0001
 Sum of MulP: up   =     4.00000 down          =     4.00000
              total=     8.00000 ideal(neutral)=     8.00000
<DFT>  Total Spin Moment (muB) =  0.000000000000
<DFT>  Mixing_weight= 0.400000000000
<DFT>  Uele   =   -1.870763858034  dUele     =   0.000000799114
<DFT>  NormRD =    0.000208028002  Criterion =   0.000000036749

******************* MD= 1  SCF=13 *******************
<Poisson>  Poisson's equation using FFT...
<Set_Hamiltonian>  Hamiltonian matrix for VNA+dVH+Vxc...
<Cluster>  Solving the eigenvalue problem...
    1    H  MulP   0.5000  0.5000 sum   0.9999
    2    H  MulP   0.5001  0.5001 sum   1.0001
    3    H  MulP   0.4999  0.4999 sum   0.9999
    4    H  MulP   0.5001  0.5001 sum   1.0001
    5    H  MulP   0.5000  0.5000 sum   0.9999
    6    H  MulP   0.5000  0.5000 sum   1.0000
    7    H  MulP   0.5000  0.5000 sum   1.0001
    8    H  MulP   0.5000  0.5000 sum   0.9999
 Sum of MulP: up   =     4.00000 down          =     4.00000
              total=     8.00000 ideal(neutral)=     8.00000
<DFT>  Total Spin Moment (muB) =  0.000000000000
<DFT>  Mixing_weight= 0.400000000000
<DFT>  Uele   =   -1.870763780181  dUele     =   0.000000077853
<DFT>  NormRD =    0.000168589651  Criterion =   0.000000036749

******************* MD= 1  SCF=14 *******************
<Poisson>  Poisson's equation using FFT...
<Set_Hamiltonian>  Hamiltonian matrix for VNA+dVH+Vxc...
<Cluster>  Solving the eigenvalue problem...
    1    H  MulP   0.5000  0.5000 sum   1.0000
    2    H  MulP   0.5000  0.5000 sum   1.0000
    3    H  MulP   0.5000  0.5000 sum   1.0000
    4    H  MulP   0.5000  0.5000 sum   1.0000
    5    H  MulP   0.5000  0.5000 sum   1.0000
    6    H  MulP   0.5000  0.5000 sum   1.0000
    7    H  MulP   0.5000  0.5000 sum   1.0000
    8    H  MulP   0.5000  0.5000 sum   1.0000
 Sum of MulP: up   =     4.00000 down          =     4.00000
              total=     8.00000 ideal(neutral)=     8.00000
<DFT>  Total Spin Moment (muB) =  0.000000000000
<DFT>  Mixing_weight= 0.400000000000
<DFT>  Uele   =   -1.870763783190  dUele     =   0.000000003009
<DFT>  NormRD =    0.000080611166  Criterion =   0.000000036749
<MD= 1>  Force calculation
  Force calculation #1
  Force calculation #2
  Force calculation #3
  Force calculation #4
  Force calculation #5
<MD= 1>  Total Energy
  Force calculation #6
  Force calculation #7

*******************************************************
                  Dipole moment (Debye)                 
*******************************************************

 Absolute D        4.33214959

                      Dx                Dy                Dz
 Total              4.33214959        0.00000001       -0.00000001
 Core             403.46937107        0.00000000        0.00000000
 Electron        -399.13722149        0.00000001       -0.00000001
 Back ground       -0.00000000        0.00000000       -0.00000000

*******************************************************
                Total Energy (Hartree) at MD = 1        
*******************************************************

  Uele  =      -1.870763783190

  Ukin  =       2.721618986473
  UH0   =      -4.491036531051
  UH1   =       0.012365174813
  Una   =      -2.604929261549
  Unl   =       0.356437890695
  Uxc0  =      -0.919188350781
  Uxc1  =      -0.919188350781
  Ucore =       2.116708996000
  Uhub  =       0.000000000000
  Ucs   =       0.000000000000
  Uzs   =       0.000000000000
  Uzo   =       0.000000000000
  Uef   =       0.000000000000
  UvdW  =       0.000000000000
  Uch   =       0.000000000000
  Utot  =      -3.727211446181

  UpV   =       0.000000000000
  Enpy  =      -3.727211446181
  Note:

  Uele:   band energy
  Ukin:   kinetic energy
  UH0:    electric part of screened Coulomb energy
  UH1:    difference electron-electron Coulomb energy
  Una:    neutral atom potential energy
  Unl:    non-local potential energy
  Uxc0:   exchange-correlation energy for alpha spin
  Uxc1:   exchange-correlation energy for beta spin
  Ucore:  core-core Coulomb energy
  Uhub:   LDA+U energy
  Ucs:    constraint energy for spin orientation
  Uzs:    Zeeman term for spin magnetic moment
  Uzo:    Zeeman term for orbital magnetic moment
  Uef:    electric energy by electric field
  UvdW:   semi-empirical vdW energy 
  Uch:    penalty term to create a core hole
  UpV:    pressure times volume
  Enpy:   Enthalpy = Utot + UpV
  (see also PRB 72, 045121(2005) for the energy contributions)


*******************************************************
           Computational times (s) at MD = 1            
*******************************************************

  DFT in total      =    0.79511

  Set_OLP_Kin       =    0.14356
  Set_Nonlocal      =    0.07575
  Set_ProExpn_VNA   =    0.25349
  Set_Hamiltonian   =    0.01238
  Poisson           =    0.01670
  diagonalization   =    0.07583
  Mixing_DM         =    0.00117
  Force             =    0.00737
  Total_Energy      =    0.18485
  Set_Aden_Grid     =    0.01118
  Set_Orbitals_Grid =    0.00098
  Set_Density_Grid  =    0.00653
  RestartFileDFT    =    0.00065
  Mulliken_Charge   =    0.00110
  FFT(2D)_Density   =    0.00000

The SCF was achieved at MD=   1

*******************************************************
             MD or geometry opt. at MD = 1              
*******************************************************


outputting data on grids to files...


***********************************************************
***********************************************************
               Computational Time (second)                 
***********************************************************
***********************************************************

                               Min_ID   Min_Time       Max_ID   Max_Time
   Total Computational Time =     1        3.868          0        3.901
   readfile                 =     1        2.783          0        2.783
   truncation               =     0        0.015          3        0.016
   MD_pac                   =     0        0.000          3        0.000
   OutData                  =     1        0.273          0        0.306
   DFT                      =     1        0.794          0        0.795

*** In DFT ***

   Set_OLP_Kin              =     1        0.131          2        0.146
   Set_Nonlocal             =     2        0.073          1        0.089
   Set_ProExpn_VNA          =     3        0.251          2        0.258
   Set_Hamiltonian          =     3        0.012          1        0.012
   Poisson                  =     0        0.017          1        0.017
   Diagonalization          =     1        0.076          0        0.076
   Mixing_DM                =     0        0.001          2        0.001
   Force                    =     1        0.007          0        0.007
   Total_Energy             =     1        0.185          0        0.185
   Set_Aden_Grid            =     2        0.007          3        0.013
   Set_Orbitals_Grid        =     3        0.001          0        0.001
   Set_Density_Grid         =     1        0.006          0        0.007
   RestartFileDFT           =     1        0.001          2        0.001
   Mulliken_Charge          =     2        0.001          0        0.001
   FFT(2D)_Density          =     0        0.000          0        0.000
   Others                   =     3        0.003          0        0.004

The calculation was normally finished.
method=openmx
N = 8
R = 3.0
dir_output = /home/yerin/qdft/hchain/output/N8/openmx_R3.00

System.CurrentDirectory /home/yerin/qdft/hchain/output/N8/openmx_R3.00
System.Name openmx
DATA.PATH /home/yerin/openmx3.9/DFT_DATA19
Species.Number 1
Definition.of.Atomic.Species [['H', 'H6.0-s3p2', 'H_CA19']]
Atoms.Number 8
Atoms.SpeciesAndCoordinates.Unit Ang
Atoms.SpeciesAndCoordinates [['1', 'H', np.float64(0.0), np.float64(0.0), np.float64(0.0), 0.5, 0.5], ['2', 'H', np.float64(3.0), np.float64(0.0), np.float64(0.0), 0.5, 0.5], ['3', 'H', np.float64(6.0), np.float64(0.0), np.float64(0.0), 0.5, 0.5], ['4', 'H', np.float64(9.0), np.float64(0.0), np.float64(0.0), 0.5, 0.5], ['5', 'H', np.float64(12.0), np.float64(0.0), np.float64(0.0), 0.5, 0.5], ['6', 'H', np.float64(15.0), np.float64(0.0), np.float64(0.0), 0.5, 0.5], ['7', 'H', np.float64(18.0), np.float64(0.0), np.float64(0.0), 0.5, 0.5], ['8', 'H', np.float64(21.0), np.float64(0.0), np.float64(0.0), 0.5, 0.5]]
Atoms.UnitVectors.Unit Ang
Atoms.UnitVectors Cell([24.0, 15.0, 15.0])
scf.Kgrid (1, 1, 1)
scf.maxIter 100
scf.ElectronicTemperature 300.0
scf.energycutoff 11.02479674248699
scf.criterion 3.6749322474956636e-08
scf.XcType LDA
scf.EigenvalueSolver cluster
scf.Mixing.Type rmm-diis
run_openmx Done: 0m 5s


# Time Start   : 2025. 02. 27. () 14:31:28 KST
# Time End     : 2025. 02. 27. () 14:34:02 KST
# Time Elapsed : 0h 2m 33.588415956s

