method=dft
N = 8
R = 0.5

Remove output/N8/dft_R0.50 ... Done

gen_input:
output/N8/dft_R0.50/POSCAR
output/N8/dft_R0.50/POTCAR
output/N8/dft_R0.50/KPOINTS
output/N8/dft_R0.50/INCAR

 running on    4 total cores
 distrk:  each k-point on    4 cores,    1 groups
 distr:  one band on    1 cores,    4 groups
 using from now: INCAR     
 vasp.5.4.4.18Apr17-6-g9f103f2a35 (build Aug 24 2024 05:40:03) complex          
  
 POSCAR found type information on POSCAR  H 
 POSCAR found :  1 types and       8 ions
 scaLAPACK will be used
 LDA part: xc-table for Pade appr. of Perdew
 POSCAR, INCAR and KPOINTS ok, starting setup
 FFT: planning ...
 WAVECAR not read
 entering main loop
       N       E                     dE             d eps       ncg     rms          rms(c)
DAV:   1     0.348158327704E+02    0.34816E+02   -0.19715E+03    80   0.174E+02
DAV:   2     0.122084854294E+02   -0.22607E+02   -0.22488E+02    60   0.867E+01
DAV:   3     0.117409226922E+02   -0.46756E+00   -0.46042E+00    56   0.148E+01
DAV:   4     0.117324369778E+02   -0.84857E-02   -0.84690E-02    80   0.158E+00
DAV:   5     0.117323642761E+02   -0.72702E-04   -0.72291E-04    56   0.781E-02    0.110E+01
DAV:   6     0.136367346723E+02    0.19044E+01   -0.10361E+00    64   0.441E+00    0.642E+00
DAV:   7     0.142985445691E+02    0.66181E+00   -0.21211E+00    48   0.629E+00    0.416E-01
DAV:   8     0.143184634108E+02    0.19919E-01   -0.55076E-02    64   0.112E+00    0.178E-01
DAV:   9     0.143165876954E+02   -0.18757E-02   -0.18987E-03    56   0.252E-01    0.668E-02
DAV:  10     0.143153978711E+02   -0.11898E-02   -0.49909E-04    56   0.844E-02    0.487E-02
DAV:  11     0.143144203935E+02   -0.97748E-03   -0.23702E-03    48   0.118E-01    0.251E-02
DAV:  12     0.143138884184E+02   -0.53198E-03   -0.39379E-04    52   0.506E-02    0.200E-02
DAV:  13     0.143133743462E+02   -0.51407E-03   -0.38692E-04    48   0.564E-02    0.883E-03
DAV:  14     0.143132416755E+02   -0.13267E-03   -0.49481E-05    48   0.240E-02    0.663E-03
DAV:  15     0.143130872092E+02   -0.15447E-03   -0.84024E-05    48   0.307E-02    0.277E-03
DAV:  16     0.143130758865E+02   -0.11323E-04   -0.27848E-05    48   0.231E-02    0.169E-03
DAV:  17     0.143130471294E+02   -0.28757E-04   -0.12985E-05    48   0.161E-02    0.100E-03
DAV:  18     0.143130363176E+02   -0.10812E-04   -0.68711E-06    48   0.120E-02    0.372E-04
DAV:  19     0.143130335636E+02   -0.27541E-05   -0.56568E-07    48   0.367E-03    0.231E-04
DAV:  20     0.143130313455E+02   -0.22181E-05   -0.37432E-07    48   0.219E-03    0.123E-04
DAV:  21     0.143130309248E+02   -0.42069E-06   -0.75835E-08    48   0.125E-03
   1 F= 0.14313031E+02 E0= 0.14425869E+02  d E =-.225676E+00  mag=    -0.0000
/home/yerin/qdft/hchain
method=dft
N = 8
R = 0.6

Remove output/N8/dft_R0.60 ... Done

gen_input:
output/N8/dft_R0.60/POSCAR
output/N8/dft_R0.60/POTCAR
output/N8/dft_R0.60/KPOINTS
output/N8/dft_R0.60/INCAR

 running on    4 total cores
 distrk:  each k-point on    4 cores,    1 groups
 distr:  one band on    1 cores,    4 groups
 using from now: INCAR     
 vasp.5.4.4.18Apr17-6-g9f103f2a35 (build Aug 24 2024 05:40:03) complex          
  
 POSCAR found type information on POSCAR  H 
 POSCAR found :  1 types and       8 ions
 scaLAPACK will be used
 LDA part: xc-table for Pade appr. of Perdew
 POSCAR, INCAR and KPOINTS ok, starting setup
 FFT: planning ...
 WAVECAR not read
 entering main loop
       N       E                     dE             d eps       ncg     rms          rms(c)
DAV:   1     0.233314004175E+02    0.23331E+02   -0.14888E+03    64   0.172E+02
DAV:   2    -0.399589571701E+00   -0.23731E+02   -0.23622E+02    52   0.789E+01
DAV:   3    -0.268908163650E+01   -0.22895E+01   -0.20687E+01    96   0.174E+01
DAV:   4    -0.285053941608E+01   -0.16146E+00   -0.15427E+00    56   0.291E+00
DAV:   5    -0.303902883564E+01   -0.18849E+00   -0.28706E-01    64   0.523E-01    0.148E+01
DAV:   6    -0.115211178912E+01    0.18869E+01   -0.39953E+01    48   0.734E+00    0.266E+00
DAV:   7    -0.108531363963E+01    0.66798E-01   -0.12424E-01    48   0.140E+00    0.166E+00
DAV:   8    -0.972082247730E+00    0.11323E+00   -0.38197E-01    48   0.231E+00    0.235E-01
DAV:   9    -0.973749219378E+00   -0.16670E-02   -0.20470E-02    56   0.404E-01    0.231E-01
DAV:  10    -0.986575730468E+00   -0.12827E-01   -0.16461E-02    48   0.518E-01    0.285E-01
DAV:  11    -0.995383754977E+00   -0.88080E-02   -0.13235E-02    48   0.502E-01    0.371E-01
DAV:  12    -0.995476522334E+00   -0.92767E-04   -0.24443E-04    64   0.668E-02    0.379E-01
DAV:  13    -0.997448150713E+00   -0.19716E-02   -0.20762E-04    56   0.512E-02    0.396E-01
DAV:  14    -0.986806138642E+00    0.10642E-01   -0.10748E-02    56   0.390E-01    0.265E-01
DAV:  15    -0.982436624314E+00    0.43695E-02   -0.93047E-03    52   0.331E-01    0.155E-01
DAV:  16    -0.981022308573E+00    0.14143E-02   -0.47518E-02    48   0.774E-01    0.124E-01
DAV:  17    -0.981580489013E+00   -0.55818E-03   -0.19080E-03    48   0.135E-01    0.128E-01
DAV:  18    -0.980052729802E+00    0.15278E-02   -0.24602E-03    48   0.211E-01    0.534E-02
DAV:  19    -0.979664619583E+00    0.38811E-03   -0.27637E-03    52   0.197E-01    0.178E-02
DAV:  20    -0.979720196481E+00   -0.55577E-04   -0.11228E-04    48   0.390E-02    0.197E-02
DAV:  21    -0.979694999838E+00    0.25197E-04   -0.44862E-05    48   0.330E-02    0.979E-03
DAV:  22    -0.979685938836E+00    0.90610E-05   -0.35740E-05    48   0.235E-02    0.186E-03
DAV:  23    -0.979689003298E+00   -0.30645E-05   -0.19364E-06    48   0.465E-03    0.129E-03
DAV:  24    -0.979689512454E+00   -0.50916E-06   -0.57385E-07    52   0.291E-03
   1 F= -.97968951E+00 E0= -.86685159E+00  d E =-.225676E+00  mag=    -0.0000
/home/yerin/qdft/hchain
method=dft
N = 8
R = 0.7

Remove output/N8/dft_R0.70 ... Done

gen_input:
output/N8/dft_R0.70/POSCAR
output/N8/dft_R0.70/POTCAR
output/N8/dft_R0.70/KPOINTS
output/N8/dft_R0.70/INCAR

 running on    4 total cores
 distrk:  each k-point on    4 cores,    1 groups
 distr:  one band on    1 cores,    4 groups
 using from now: INCAR     
 vasp.5.4.4.18Apr17-6-g9f103f2a35 (build Aug 24 2024 05:40:03) complex          
  
 POSCAR found type information on POSCAR  H 
 POSCAR found :  1 types and       8 ions
 scaLAPACK will be used
 LDA part: xc-table for Pade appr. of Perdew
 POSCAR, INCAR and KPOINTS ok, starting setup
 FFT: planning ...
 WAVECAR not read
 entering main loop
       N       E                     dE             d eps       ncg     rms          rms(c)
DAV:   1     0.381551714337E+01    0.38155E+01   -0.16181E+03    80   0.186E+02
DAV:   2    -0.135591481810E+02   -0.17375E+02   -0.17065E+02    68   0.678E+01
DAV:   3    -0.138875815099E+02   -0.32843E+00   -0.32702E+00    64   0.969E+00
DAV:   4    -0.140811984044E+02   -0.19362E+00   -0.15356E-01    48   0.112E+00
DAV:   5    -0.141182357228E+02   -0.37037E-01   -0.34402E-01    64   0.944E-01    0.112E+01
DAV:   6    -0.108720527500E+02    0.32462E+01   -0.10293E+00    48   0.477E+00    0.643E+00
DAV:   7    -0.123408465159E+02   -0.14688E+01   -0.36001E+01    48   0.775E+00    0.675E+00
DAV:   8    -0.109773608031E+02    0.13635E+01   -0.21917E-01    48   0.186E+00    0.559E+00
DAV:   9    -0.102877435287E+02    0.68962E+00   -0.14865E-01    56   0.125E+00    0.493E+00
DAV:  10    -0.108680661732E+02   -0.58032E+00   -0.31620E+01    48   0.553E+00    0.507E+00
DAV:  11    -0.106798060112E+02    0.18826E+00   -0.12543E-02    48   0.674E-01    0.457E+00
DAV:  12    -0.101247654715E+02    0.55504E+00   -0.11580E-01    48   0.175E+00    0.350E+00
DAV:  13    -0.996890933905E+01    0.15586E+00   -0.12568E-02    48   0.572E-01    0.319E+00
DAV:  14    -0.984458045370E+01    0.12433E+00   -0.75541E-03    48   0.405E-01    0.297E+00
DAV:  15    -0.972590126707E+01    0.11868E+00   -0.23041E+00    48   0.147E+00    0.285E+00
DAV:  16    -0.981481230818E+01   -0.88911E-01   -0.38862E+00    48   0.157E+00    0.290E+00
DAV:  17    -0.966082666018E+01    0.15399E+00   -0.24865E-02    48   0.782E-01    0.920E-01
DAV:  18    -0.967854514874E+01   -0.17718E-01   -0.55746E-04    48   0.176E-01    0.127E+00
DAV:  19    -0.966975486376E+01    0.87903E-02   -0.23820E-04    48   0.762E-02    0.938E-01
DAV:  20    -0.967614516105E+01   -0.63903E-02   -0.11709E-04    48   0.695E-02    0.113E+00
DAV:  21    -0.967591754351E+01    0.22762E-03   -0.21402E-05    48   0.244E-02    0.117E+00
DAV:  22    -0.966357777575E+01    0.12340E-01   -0.16033E-03    48   0.182E-01    0.234E-01
DAV:  23    -0.966814679867E+01   -0.45690E-02   -0.37728E-04    48   0.108E-01    0.474E-01
DAV:  24    -0.966657670858E+01    0.15701E-02   -0.16593E-04    48   0.599E-02    0.171E-01
DAV:  25    -0.966733091169E+01   -0.75420E-03   -0.40298E-05    56   0.341E-02    0.248E-01
DAV:  26    -0.966704495289E+01    0.28596E-03   -0.52133E-05    48   0.337E-02    0.977E-02
DAV:  27    -0.966722176231E+01   -0.17681E-03   -0.16313E-05    56   0.167E-02    0.104E-01
DAV:  28    -0.966732214818E+01   -0.10039E-03   -0.74070E-05    56   0.394E-02    0.278E-02
DAV:  29    -0.966735725291E+01   -0.35105E-04   -0.89563E-06    48   0.115E-02    0.136E-02
DAV:  30    -0.966736592288E+01   -0.86700E-05   -0.22533E-06    56   0.623E-03    0.784E-03
DAV:  31    -0.966739841733E+01   -0.32494E-04   -0.19005E-05    48   0.197E-02    0.479E-02
DAV:  32    -0.966737870253E+01    0.19715E-04   -0.15979E-06    48   0.569E-03    0.265E-02
DAV:  33    -0.966737627159E+01    0.24309E-05   -0.13879E-07    48   0.146E-03    0.180E-02
DAV:  34    -0.966737733350E+01   -0.10619E-05   -0.66820E-08    56   0.108E-03    0.176E-02
DAV:  35    -0.966738041897E+01   -0.30855E-05   -0.21223E-07    48   0.196E-03    0.242E-02
DAV:  36    -0.966737657270E+01    0.38463E-05   -0.17668E-07    56   0.185E-03    0.152E-02
DAV:  37    -0.966737540841E+01    0.11643E-05   -0.15887E-07    32   0.163E-03    0.599E-03
DAV:  38    -0.966737604589E+01   -0.63749E-06   -0.93270E-08    56   0.115E-03
   1 F= -.96673760E+01 E0= -.94915053E+01  d E =-.351741E+00  mag=     0.0000
/home/yerin/qdft/hchain
method=dft
N = 8
R = 0.8

Remove output/N8/dft_R0.80 ... Done

gen_input:
output/N8/dft_R0.80/POSCAR
output/N8/dft_R0.80/POTCAR
output/N8/dft_R0.80/KPOINTS
output/N8/dft_R0.80/INCAR

 running on    4 total cores
 distrk:  each k-point on    4 cores,    1 groups
 distr:  one band on    1 cores,    4 groups
 using from now: INCAR     
 vasp.5.4.4.18Apr17-6-g9f103f2a35 (build Aug 24 2024 05:40:03) complex          
  
 POSCAR found type information on POSCAR  H 
 POSCAR found :  1 types and       8 ions
 scaLAPACK will be used
 LDA part: xc-table for Pade appr. of Perdew
 POSCAR, INCAR and KPOINTS ok, starting setup
 FFT: planning ...
 WAVECAR not read
 entering main loop
       N       E                     dE             d eps       ncg     rms          rms(c)
DAV:   1    -0.981764842387E+00   -0.98176E+00   -0.15941E+03    72   0.185E+02
DAV:   2    -0.186722118923E+02   -0.17690E+02   -0.17484E+02    56   0.648E+01
DAV:   3    -0.191184892127E+02   -0.44628E+00   -0.43002E+00    76   0.110E+01
DAV:   4    -0.193228752391E+02   -0.20439E+00   -0.43468E-01    56   0.980E-01
DAV:   5    -0.193301304349E+02   -0.72552E-02   -0.71666E-02    48   0.470E-01    0.861E+00
DAV:   6    -0.174831372304E+02    0.18470E+01   -0.55634E-01    48   0.330E+00    0.500E+00
DAV:   7    -0.162379835832E+02    0.12452E+01   -0.16117E+00    56   0.554E+00    0.628E-01
DAV:   8    -0.162196096912E+02    0.18374E-01   -0.10354E-02    48   0.617E-01    0.292E-01
DAV:   9    -0.162073194737E+02    0.12290E-01   -0.78901E-03    56   0.399E-01    0.946E-02
DAV:  10    -0.162162517385E+02   -0.89323E-02   -0.41000E-03    52   0.268E-01    0.487E-02
DAV:  11    -0.162195449319E+02   -0.32932E-02   -0.27649E-04    52   0.857E-02    0.348E-02
DAV:  12    -0.162272082196E+02   -0.76633E-02   -0.12134E-03    56   0.171E-01    0.213E-02
DAV:  13    -0.162288723539E+02   -0.16641E-02   -0.27844E-04    48   0.760E-02    0.136E-02
DAV:  14    -0.162294762249E+02   -0.60387E-03   -0.11539E-05    48   0.172E-02    0.797E-03
DAV:  15    -0.162303659095E+02   -0.88968E-03   -0.27625E-05    48   0.277E-02    0.331E-03
DAV:  16    -0.162304280395E+02   -0.62130E-04   -0.93908E-07    48   0.661E-03    0.239E-03
DAV:  17    -0.162305549475E+02   -0.12691E-03   -0.21386E-06    48   0.696E-03    0.632E-04
DAV:  18    -0.162305715056E+02   -0.16558E-04   -0.28327E-07    48   0.316E-03    0.442E-04
DAV:  19    -0.162305789776E+02   -0.74720E-05   -0.70209E-08    48   0.173E-03    0.226E-04
DAV:  20    -0.162305856191E+02   -0.66415E-05   -0.94306E-08    48   0.196E-03    0.129E-04
DAV:  21    -0.162305873526E+02   -0.17335E-05   -0.19627E-08    48   0.794E-04    0.964E-05
DAV:  22    -0.162305894848E+02   -0.21323E-05   -0.19981E-08    52   0.831E-04    0.405E-05
DAV:  23    -0.162305903038E+02   -0.81895E-06   -0.69948E-09    52   0.518E-04
   1 F= -.16230590E+02 E0= -.16117752E+02  d E =-.225676E+00  mag=     0.0000
/home/yerin/qdft/hchain
method=dft
N = 8
R = 0.9

Remove output/N8/dft_R0.90 ... Done

gen_input:
output/N8/dft_R0.90/POSCAR
output/N8/dft_R0.90/POTCAR
output/N8/dft_R0.90/KPOINTS
output/N8/dft_R0.90/INCAR

 running on    4 total cores
 distrk:  each k-point on    4 cores,    1 groups
 distr:  one band on    1 cores,    4 groups
 using from now: INCAR     
 vasp.5.4.4.18Apr17-6-g9f103f2a35 (build Aug 24 2024 05:40:03) complex          
  
 POSCAR found type information on POSCAR  H 
 POSCAR found :  1 types and       8 ions
 scaLAPACK will be used
 LDA part: xc-table for Pade appr. of Perdew
 POSCAR, INCAR and KPOINTS ok, starting setup
 FFT: planning ...
 WAVECAR not read
 entering main loop
       N       E                     dE             d eps       ncg     rms          rms(c)
DAV:   1    -0.335256211706E+01   -0.33526E+01   -0.12662E+03    72   0.169E+02
DAV:   2    -0.206397709430E+02   -0.17287E+02   -0.16735E+02    60   0.603E+01
DAV:   3    -0.213879407401E+02   -0.74817E+00   -0.73518E+00    96   0.110E+01
DAV:   4    -0.215980261463E+02   -0.21009E+00   -0.46594E-01    52   0.610E-01
DAV:   5    -0.216011521436E+02   -0.31260E-02   -0.31119E-02    56   0.342E-01    0.660E+00
DAV:   6    -0.205419582316E+02    0.10592E+01   -0.30833E-01    48   0.235E+00    0.388E+00
DAV:   7    -0.197774195505E+02    0.76454E+00   -0.93186E-01    56   0.404E+00    0.472E-01
DAV:   8    -0.197661357914E+02    0.11284E-01   -0.94615E-03    48   0.568E-01    0.199E-01
DAV:   9    -0.197591481044E+02    0.69877E-02   -0.44058E-03    56   0.290E-01    0.743E-02
DAV:  10    -0.197661590982E+02   -0.70110E-02   -0.22110E-03    48   0.206E-01    0.321E-02
DAV:  11    -0.197693637330E+02   -0.32046E-02   -0.22660E-04    48   0.715E-02    0.249E-02
DAV:  12    -0.197755524843E+02   -0.61888E-02   -0.11405E-03    56   0.145E-01    0.146E-02
DAV:  13    -0.197760571947E+02   -0.50471E-03   -0.39203E-05    48   0.269E-02    0.951E-03
DAV:  14    -0.197766098534E+02   -0.55266E-03   -0.10930E-05    48   0.171E-02    0.467E-03
DAV:  15    -0.197772019023E+02   -0.59205E-03   -0.18191E-05    48   0.201E-02    0.198E-03
DAV:  16    -0.197772474963E+02   -0.45594E-04   -0.46337E-07    52   0.405E-03    0.137E-03
DAV:  17    -0.197773303208E+02   -0.82825E-04   -0.16086E-06    48   0.610E-03    0.388E-04
DAV:  18    -0.197773350247E+02   -0.47039E-05   -0.10182E-07    48   0.178E-03    0.247E-04
DAV:  19    -0.197773423353E+02   -0.73107E-05   -0.67349E-08    48   0.151E-03    0.144E-04
DAV:  20    -0.197773452759E+02   -0.29406E-05   -0.32919E-08    48   0.110E-03    0.773E-05
DAV:  21    -0.197773469235E+02   -0.16476E-05   -0.11143E-08    48   0.615E-04    0.614E-05
DAV:  22    -0.197773481664E+02   -0.12429E-05   -0.80190E-09    48   0.592E-04    0.274E-05
DAV:  23    -0.197773483966E+02   -0.23021E-06   -0.20660E-09    56   0.364E-04
   1 F= -.19777348E+02 E0= -.19664510E+02  d E =-.225676E+00  mag=     0.0000
/home/yerin/qdft/hchain
method=dft
N = 8
R = 1.0

Remove output/N8/dft_R1.00 ... Done

gen_input:
output/N8/dft_R1.00/POSCAR
output/N8/dft_R1.00/POTCAR
output/N8/dft_R1.00/KPOINTS
output/N8/dft_R1.00/INCAR

 running on    4 total cores
 distrk:  each k-point on    4 cores,    1 groups
 distr:  one band on    1 cores,    4 groups
 using from now: INCAR     
 vasp.5.4.4.18Apr17-6-g9f103f2a35 (build Aug 24 2024 05:40:03) complex          
  
 POSCAR found type information on POSCAR  H 
 POSCAR found :  1 types and       8 ions
 scaLAPACK will be used
 LDA part: xc-table for Pade appr. of Perdew
 POSCAR, INCAR and KPOINTS ok, starting setup
 FFT: planning ...
 WAVECAR not read
 entering main loop
       N       E                     dE             d eps       ncg     rms          rms(c)
DAV:   1     0.410574524250E+01    0.41057E+01   -0.12763E+03    64   0.190E+02
DAV:   2    -0.194457660350E+02   -0.23552E+02   -0.22939E+02    72   0.606E+01
DAV:   3    -0.220765628851E+02   -0.26308E+01   -0.25214E+01    60   0.180E+01
DAV:   4    -0.222143979918E+02   -0.13784E+00   -0.27484E-01    52   0.226E+00
DAV:   5    -0.222170194301E+02   -0.26214E-02   -0.26069E-02    64   0.426E-01    0.507E+00
DAV:   6    -0.216078539813E+02    0.60917E+00   -0.17267E-01    48   0.171E+00    0.301E+00
DAV:   7    -0.211386780582E+02    0.46918E+00   -0.54180E-01    56   0.301E+00    0.364E-01
DAV:   8    -0.211315999622E+02    0.70781E-02   -0.81010E-03    48   0.511E-01    0.139E-01
DAV:   9    -0.211285061142E+02    0.30938E-02   -0.24253E-03    56   0.206E-01    0.600E-02
DAV:  10    -0.211338447658E+02   -0.53387E-02   -0.11307E-03    48   0.157E-01    0.353E-02
DAV:  11    -0.211355811041E+02   -0.17363E-02   -0.10547E-04    52   0.515E-02    0.204E-02
DAV:  12    -0.211409151196E+02   -0.53340E-02   -0.10179E-03    56   0.128E-01    0.113E-02
DAV:  13    -0.211412430523E+02   -0.32793E-03   -0.16077E-05    48   0.237E-02    0.682E-03
DAV:  14    -0.211416941964E+02   -0.45114E-03   -0.42822E-06    48   0.153E-02    0.418E-03
DAV:  15    -0.211421482480E+02   -0.45405E-03   -0.14226E-05    48   0.183E-02    0.167E-03
DAV:  16    -0.211421858690E+02   -0.37621E-04   -0.21583E-07    56   0.367E-03    0.105E-03
DAV:  17    -0.211422468786E+02   -0.61010E-04   -0.97998E-07    48   0.482E-03    0.486E-04
DAV:  18    -0.211422506560E+02   -0.37774E-05   -0.40188E-08    48   0.126E-03    0.278E-04
DAV:  19    -0.211422584064E+02   -0.77504E-05   -0.51744E-08    48   0.141E-03    0.241E-04
DAV:  20    -0.211422593223E+02   -0.91593E-06   -0.81101E-09    48   0.664E-04
   1 F= -.21142259E+02 E0= -.21029421E+02  d E =-.225676E+00  mag=    -0.0000
/home/yerin/qdft/hchain
method=dft
N = 8
R = 1.1

Remove output/N8/dft_R1.10 ... Done

gen_input:
output/N8/dft_R1.10/POSCAR
output/N8/dft_R1.10/POTCAR
output/N8/dft_R1.10/KPOINTS
output/N8/dft_R1.10/INCAR

 running on    4 total cores
 distrk:  each k-point on    4 cores,    1 groups
 distr:  one band on    1 cores,    4 groups
 using from now: INCAR     
 vasp.5.4.4.18Apr17-6-g9f103f2a35 (build Aug 24 2024 05:40:03) complex          
  
 POSCAR found type information on POSCAR  H 
 POSCAR found :  1 types and       8 ions
 scaLAPACK will be used
 LDA part: xc-table for Pade appr. of Perdew
 POSCAR, INCAR and KPOINTS ok, starting setup
 FFT: planning ...
 WAVECAR not read
 entering main loop
       N       E                     dE             d eps       ncg     rms          rms(c)
DAV:   1     0.366723776382E+01    0.36672E+01   -0.11850E+03    64   0.179E+02
DAV:   2    -0.186353815059E+02   -0.22303E+02   -0.20749E+02    60   0.600E+01
DAV:   3    -0.217666918296E+02   -0.31313E+01   -0.29656E+01    64   0.213E+01
DAV:   4    -0.218384767569E+02   -0.71785E-01   -0.70299E-01    48   0.352E+00
DAV:   5    -0.218393797341E+02   -0.90298E-03   -0.90267E-03    80   0.379E-01    0.390E+00
DAV:   6    -0.214946580438E+02    0.34472E+00   -0.97582E-02    48   0.128E+00    0.233E+00
DAV:   7    -0.212112409786E+02    0.28342E+00   -0.31597E-01    56   0.229E+00    0.288E-01
DAV:   8    -0.212074788870E+02    0.37621E-02   -0.65292E-03    48   0.445E-01    0.100E-01
DAV:   9    -0.212067683706E+02    0.71052E-03   -0.12576E-03    56   0.153E-01    0.490E-02
DAV:  10    -0.212091532832E+02   -0.23849E-02   -0.59890E-04    56   0.110E-01    0.361E-02
DAV:  11    -0.212112368474E+02   -0.20836E-02   -0.18452E-04    48   0.670E-02    0.164E-02
DAV:  12    -0.212148127324E+02   -0.35759E-02   -0.43068E-04    48   0.870E-02    0.105E-02
DAV:  13    -0.212159190964E+02   -0.11064E-02   -0.17227E-04    48   0.528E-02    0.581E-03
DAV:  14    -0.212162759875E+02   -0.35689E-03   -0.24311E-06    48   0.106E-02    0.343E-03
DAV:  15    -0.212166597464E+02   -0.38376E-03   -0.11721E-05    48   0.162E-02    0.190E-03
DAV:  16    -0.212166963578E+02   -0.36611E-04   -0.38120E-07    52   0.383E-03    0.115E-03
DAV:  17    -0.212167467830E+02   -0.50425E-04   -0.79089E-07    48   0.411E-03    0.453E-04
DAV:  18    -0.212167508573E+02   -0.40742E-05   -0.67971E-08    48   0.143E-03    0.275E-04
DAV:  19    -0.212167555090E+02   -0.46517E-05   -0.41976E-08    48   0.104E-03    0.171E-04
DAV:  20    -0.212167585156E+02   -0.30066E-05   -0.26238E-08    48   0.110E-03    0.976E-05
DAV:  21    -0.212167592265E+02   -0.71091E-06   -0.29762E-09    52   0.319E-04
   1 F= -.21216759E+02 E0= -.21103921E+02  d E =-.225676E+00  mag=     0.0000
/home/yerin/qdft/hchain
method=dft
N = 8
R = 1.2

Remove output/N8/dft_R1.20 ... Done

gen_input:
output/N8/dft_R1.20/POSCAR
output/N8/dft_R1.20/POTCAR
output/N8/dft_R1.20/KPOINTS
output/N8/dft_R1.20/INCAR

 running on    4 total cores
 distrk:  each k-point on    4 cores,    1 groups
 distr:  one band on    1 cores,    4 groups
 using from now: INCAR     
 vasp.5.4.4.18Apr17-6-g9f103f2a35 (build Aug 24 2024 05:40:03) complex          
  
 POSCAR found type information on POSCAR  H 
 POSCAR found :  1 types and       8 ions
 scaLAPACK will be used
 LDA part: xc-table for Pade appr. of Perdew
 POSCAR, INCAR and KPOINTS ok, starting setup
 FFT: planning ...
 WAVECAR not read
 entering main loop
       N       E                     dE             d eps       ncg     rms          rms(c)
DAV:   1    -0.396301350267E+01   -0.39630E+01   -0.11370E+03    64   0.171E+02
DAV:   2    -0.203262266588E+02   -0.16363E+02   -0.16335E+02    80   0.547E+01
DAV:   3    -0.208575116045E+02   -0.53128E+00   -0.31802E+00    56   0.924E+00
DAV:   4    -0.208724069498E+02   -0.14895E-01   -0.14653E-01    64   0.144E+00
DAV:   5    -0.208725733205E+02   -0.16637E-03   -0.16636E-03    96   0.138E-01    0.301E+00
DAV:   6    -0.206866999847E+02    0.18587E+00   -0.54907E-02    56   0.988E-01    0.182E+00
DAV:   7    -0.205229114955E+02    0.16379E+00   -0.18487E-01    60   0.179E+00    0.234E-01
DAV:   8    -0.205216839570E+02    0.12275E-02   -0.48825E-03    52   0.370E-01    0.727E-02
DAV:   9    -0.205216286867E+02    0.55270E-04   -0.80720E-04    60   0.116E-01    0.397E-02
DAV:  10    -0.205239262980E+02   -0.22976E-02   -0.76403E-04    48   0.124E-01    0.157E-02
DAV:  11    -0.205275308789E+02   -0.36046E-02   -0.53160E-04    48   0.907E-02    0.989E-03
DAV:  12    -0.205285503423E+02   -0.10195E-02   -0.13135E-04    48   0.446E-02    0.616E-03
DAV:  13    -0.205288626938E+02   -0.31235E-03   -0.42963E-06    48   0.103E-02    0.387E-03
DAV:  14    -0.205292887916E+02   -0.42610E-03   -0.17735E-05    48   0.178E-02    0.225E-03
DAV:  15    -0.205293192672E+02   -0.30476E-04   -0.22937E-07    56   0.255E-03    0.136E-03
DAV:  16    -0.205293826143E+02   -0.63347E-04   -0.12281E-06    48   0.487E-03    0.836E-04
DAV:  17    -0.205293833433E+02   -0.72898E-06   -0.47870E-08    48   0.106E-03
   1 F= -.20529383E+02 E0= -.20416545E+02  d E =-.225676E+00  mag=    -0.0000
/home/yerin/qdft/hchain
method=dft
N = 8
R = 1.3

Remove output/N8/dft_R1.30 ... Done

gen_input:
output/N8/dft_R1.30/POSCAR
output/N8/dft_R1.30/POTCAR
output/N8/dft_R1.30/KPOINTS
output/N8/dft_R1.30/INCAR

 running on    4 total cores
 distrk:  each k-point on    4 cores,    1 groups
 distr:  one band on    1 cores,    4 groups
 using from now: INCAR     
 vasp.5.4.4.18Apr17-6-g9f103f2a35 (build Aug 24 2024 05:40:03) complex          
  
 POSCAR found type information on POSCAR  H 
 POSCAR found :  1 types and       8 ions
 scaLAPACK will be used
 LDA part: xc-table for Pade appr. of Perdew
 POSCAR, INCAR and KPOINTS ok, starting setup
 FFT: planning ...
 WAVECAR not read
 entering main loop
       N       E                     dE             d eps       ncg     rms          rms(c)
DAV:   1     0.509957130241E+01    0.50996E+01   -0.10958E+03    56   0.182E+02
DAV:   2    -0.180456904882E+02   -0.23145E+02   -0.22621E+02    80   0.537E+01
DAV:   3    -0.195461440864E+02   -0.15005E+01   -0.12927E+01    60   0.160E+01
DAV:   4    -0.195859990793E+02   -0.39855E-01   -0.39051E-01    64   0.247E+00
DAV:   5    -0.195866469229E+02   -0.64784E-03   -0.64140E-03    64   0.284E-01    0.236E+00
DAV:   6    -0.194972118280E+02    0.89435E-01   -0.29225E-02    64   0.778E-01    0.144E+00
DAV:   7    -0.194102883604E+02    0.86923E-01   -0.11037E-01    56   0.145E+00    0.193E-01
DAV:   8    -0.194108560532E+02   -0.56769E-03   -0.34635E-03    48   0.300E-01    0.596E-02
DAV:   9    -0.194113862110E+02   -0.53016E-03   -0.34728E-04    60   0.837E-02    0.325E-02
DAV:  10    -0.194130678718E+02   -0.16817E-02   -0.28117E-04    48   0.706E-02    0.209E-02
DAV:  11    -0.194131734146E+02   -0.10554E-03   -0.17272E-04    52   0.609E-02    0.110E-02
DAV:  12    -0.194150722435E+02   -0.18988E-02   -0.17597E-04    52   0.528E-02    0.780E-03
DAV:  13    -0.194164457267E+02   -0.13735E-02   -0.21433E-04    48   0.551E-02    0.458E-03
DAV:  14    -0.194167116367E+02   -0.26591E-03   -0.64459E-06    48   0.116E-02    0.296E-03
DAV:  15    -0.194169887523E+02   -0.27712E-03   -0.13438E-05    48   0.149E-02    0.170E-03
DAV:  16    -0.194170099851E+02   -0.21233E-04   -0.25503E-07    48   0.237E-03    0.107E-03
DAV:  17    -0.194170458036E+02   -0.35819E-04   -0.52195E-07    48   0.308E-03    0.289E-04
DAV:  18    -0.194170534484E+02   -0.76448E-05   -0.18201E-07    48   0.198E-03    0.174E-04
DAV:  19    -0.194170554331E+02   -0.19847E-05   -0.18021E-08    48   0.686E-04    0.109E-04
DAV:  20    -0.194170583093E+02   -0.28763E-05   -0.24732E-08    48   0.958E-04    0.400E-05
DAV:  21    -0.194170587811E+02   -0.47181E-06   -0.36530E-09    56   0.377E-04
   1 F= -.19417059E+02 E0= -.19304221E+02  d E =-.225676E+00  mag=     0.0000
/home/yerin/qdft/hchain
method=dft
N = 8
R = 1.4

Remove output/N8/dft_R1.40 ... Done

gen_input:
output/N8/dft_R1.40/POSCAR
output/N8/dft_R1.40/POTCAR
output/N8/dft_R1.40/KPOINTS
output/N8/dft_R1.40/INCAR

 running on    4 total cores
 distrk:  each k-point on    4 cores,    1 groups
 distr:  one band on    1 cores,    4 groups
 using from now: INCAR     
 vasp.5.4.4.18Apr17-6-g9f103f2a35 (build Aug 24 2024 05:40:03) complex          
  
 POSCAR found type information on POSCAR  H 
 POSCAR found :  1 types and       8 ions
 scaLAPACK will be used
 LDA part: xc-table for Pade appr. of Perdew
 POSCAR, INCAR and KPOINTS ok, starting setup
 FFT: planning ...
 WAVECAR not read
 entering main loop
       N       E                     dE             d eps       ncg     rms          rms(c)
DAV:   1     0.776172454102E+01    0.77617E+01   -0.11044E+03    56   0.187E+02
DAV:   2    -0.160766080076E+02   -0.23838E+02   -0.23297E+02    76   0.537E+01
DAV:   3    -0.180835959077E+02   -0.20070E+01   -0.18214E+01    60   0.175E+01
DAV:   4    -0.181576105641E+02   -0.74015E-01   -0.71198E-01    72   0.304E+00
DAV:   5    -0.181586154810E+02   -0.10049E-02   -0.10007E-02    72   0.331E-01    0.190E+00
DAV:   6    -0.181266223655E+02    0.31993E-01   -0.16835E-02    48   0.646E-01    0.117E+00
DAV:   7    -0.180889327736E+02    0.37690E-01   -0.64127E-02    48   0.121E+00    0.157E-01
DAV:   8    -0.180910031535E+02   -0.20704E-02   -0.24154E-03    48   0.239E-01    0.425E-02
DAV:   9    -0.180913995893E+02   -0.39644E-03   -0.15115E-04    56   0.556E-02    0.266E-02
DAV:  10    -0.180926570061E+02   -0.12574E-02   -0.15496E-04    48   0.588E-02    0.175E-02
DAV:  11    -0.180925852265E+02    0.71780E-04   -0.23196E-04    48   0.595E-02    0.897E-03
DAV:  12    -0.180941820435E+02   -0.15968E-02   -0.16013E-04    48   0.467E-02    0.597E-03
DAV:  13    -0.180948939759E+02   -0.71193E-03   -0.74906E-05    48   0.322E-02    0.387E-03
DAV:  14    -0.180951828521E+02   -0.28888E-03   -0.10913E-05    48   0.137E-02    0.222E-03
DAV:  15    -0.180953725280E+02   -0.18968E-03   -0.90047E-06    48   0.120E-02    0.125E-03
DAV:  16    -0.180953869961E+02   -0.14468E-04   -0.13283E-07    48   0.169E-03    0.845E-04
DAV:  17    -0.180954230114E+02   -0.36015E-04   -0.65546E-07    48   0.352E-03    0.233E-04
DAV:  18    -0.180954240879E+02   -0.10766E-05   -0.18439E-08    48   0.769E-04    0.136E-04
DAV:  19    -0.180954268140E+02   -0.27260E-05   -0.15392E-08    48   0.667E-04    0.811E-05
DAV:  20    -0.180954282853E+02   -0.14713E-05   -0.10090E-08    48   0.684E-04    0.360E-05
DAV:  21    -0.180954286526E+02   -0.36728E-06   -0.93950E-10    48   0.196E-04
   1 F= -.18095429E+02 E0= -.17982591E+02  d E =-.225676E+00  mag=    -0.0000
/home/yerin/qdft/hchain
method=dft
N = 8
R = 1.5

Remove output/N8/dft_R1.50 ... Done

gen_input:
output/N8/dft_R1.50/POSCAR
output/N8/dft_R1.50/POTCAR
output/N8/dft_R1.50/KPOINTS
output/N8/dft_R1.50/INCAR

 running on    4 total cores
 distrk:  each k-point on    4 cores,    1 groups
 distr:  one band on    1 cores,    4 groups
 using from now: INCAR     
 vasp.5.4.4.18Apr17-6-g9f103f2a35 (build Aug 24 2024 05:40:03) complex          
  
 POSCAR found type information on POSCAR  H 
 POSCAR found :  1 types and       8 ions
 scaLAPACK will be used
 LDA part: xc-table for Pade appr. of Perdew
 POSCAR, INCAR and KPOINTS ok, starting setup
 FFT: planning ...
 WAVECAR not read
 entering main loop
       N       E                     dE             d eps       ncg     rms          rms(c)
DAV:   1    -0.197587630425E+01   -0.19759E+01   -0.11551E+03    64   0.183E+02
DAV:   2    -0.158232970926E+02   -0.13847E+02   -0.13823E+02    60   0.510E+01
DAV:   3    -0.166671581825E+02   -0.84386E+00   -0.65881E+00    76   0.129E+01
DAV:   4    -0.166957910574E+02   -0.28633E-01   -0.26969E-01    64   0.139E+00
DAV:   5    -0.166960864335E+02   -0.29538E-03   -0.29537E-03    64   0.138E-01    0.158E+00
DAV:   6    -0.166966671481E+02   -0.58071E-03   -0.11091E-02    64   0.555E-01    0.995E-01
DAV:   7    -0.166906217496E+02    0.60454E-02   -0.39683E-02    48   0.102E+00    0.121E-01
DAV:   8    -0.166932416853E+02   -0.26199E-02   -0.13667E-03    48   0.177E-01    0.309E-02
DAV:   9    -0.166935727035E+02   -0.33102E-03   -0.15987E-04    56   0.543E-02    0.210E-02
DAV:  10    -0.166945432731E+02   -0.97057E-03   -0.12937E-04    48   0.473E-02    0.134E-02
DAV:  11    -0.166945237881E+02    0.19485E-04   -0.13629E-04    48   0.440E-02    0.750E-03
DAV:  12    -0.166957669653E+02   -0.12432E-02   -0.13137E-04    48   0.401E-02    0.430E-03
DAV:  13    -0.166961247148E+02   -0.35775E-03   -0.25164E-05    48   0.194E-02    0.312E-03
DAV:  14    -0.166964299463E+02   -0.30523E-03   -0.19213E-05    48   0.167E-02    0.144E-03
DAV:  15    -0.166965075848E+02   -0.77639E-04   -0.17901E-06    48   0.596E-03    0.799E-04
DAV:  16    -0.166965223748E+02   -0.14790E-04   -0.94319E-08    48   0.157E-03    0.550E-04
DAV:  17    -0.166965511260E+02   -0.28751E-04   -0.61277E-07    48   0.337E-03    0.128E-04
DAV:  18    -0.166965523546E+02   -0.12286E-05   -0.16393E-08    48   0.730E-04    0.846E-05
DAV:  19    -0.166965544894E+02   -0.21347E-05   -0.12691E-08    48   0.583E-04    0.496E-05
DAV:  20    -0.166965556300E+02   -0.11406E-05   -0.80519E-09    48   0.561E-04    0.240E-05
DAV:  21    -0.166965558671E+02   -0.23709E-06   -0.63291E-10    48   0.151E-04
   1 F= -.16696556E+02 E0= -.16583718E+02  d E =-.225676E+00  mag=     0.0000
/home/yerin/qdft/hchain
method=dft
N = 8
R = 1.6

Remove output/N8/dft_R1.60 ... Done

gen_input:
output/N8/dft_R1.60/POSCAR
output/N8/dft_R1.60/POTCAR
output/N8/dft_R1.60/KPOINTS
output/N8/dft_R1.60/INCAR

 running on    4 total cores
 distrk:  each k-point on    4 cores,    1 groups
 distr:  one band on    1 cores,    4 groups
 using from now: INCAR     
 vasp.5.4.4.18Apr17-6-g9f103f2a35 (build Aug 24 2024 05:40:03) complex          
  
 POSCAR found type information on POSCAR  H 
 POSCAR found :  1 types and       8 ions
 scaLAPACK will be used
 LDA part: xc-table for Pade appr. of Perdew
 POSCAR, INCAR and KPOINTS ok, starting setup
 FFT: planning ...
 WAVECAR not read
 entering main loop
       N       E                     dE             d eps       ncg     rms          rms(c)
DAV:   1     0.562411732560E+01    0.56241E+01   -0.93909E+02    56   0.174E+02
DAV:   2    -0.139681965493E+02   -0.19592E+02   -0.19566E+02    84   0.539E+01
DAV:   3    -0.152052465345E+02   -0.12370E+01   -0.10555E+01    72   0.149E+01
DAV:   4    -0.152640494576E+02   -0.58803E-01   -0.52690E-01    64   0.224E+00
DAV:   5    -0.152641905951E+02   -0.14114E-03   -0.14097E-03    72   0.111E-01    0.139E+00
DAV:   6    -0.152836945505E+02   -0.19504E-01   -0.81416E-03    64   0.501E-01    0.878E-01
DAV:   7    -0.152966768702E+02   -0.12982E-01   -0.27596E-02    56   0.901E-01    0.919E-02
DAV:   8    -0.152991310487E+02   -0.24542E-02   -0.80526E-04    64   0.136E-01    0.238E-02
DAV:   9    -0.152995571739E+02   -0.42613E-03   -0.14700E-04    56   0.486E-02    0.168E-02
DAV:  10    -0.153002769967E+02   -0.71982E-03   -0.96407E-05    48   0.392E-02    0.102E-02
DAV:  11    -0.153002192018E+02    0.57795E-04   -0.11040E-04    52   0.378E-02    0.613E-03
DAV:  12    -0.153009508116E+02   -0.73161E-03   -0.51449E-05    52   0.250E-02    0.340E-03
DAV:  13    -0.153013369838E+02   -0.38617E-03   -0.31178E-05    48   0.201E-02    0.252E-03
DAV:  14    -0.153015570150E+02   -0.22003E-03   -0.12549E-05    48   0.133E-02    0.150E-03
DAV:  15    -0.153016453321E+02   -0.88317E-04   -0.28195E-06    48   0.655E-03    0.566E-04
DAV:  16    -0.153016662645E+02   -0.20932E-04   -0.21682E-07    48   0.219E-03    0.435E-04
DAV:  17    -0.153016851843E+02   -0.18920E-04   -0.40054E-07    48   0.262E-03    0.114E-04
DAV:  18    -0.153016864092E+02   -0.12249E-05   -0.13595E-08    48   0.598E-04    0.689E-05
DAV:  19    -0.153016876945E+02   -0.12853E-05   -0.50077E-09    48   0.377E-04    0.339E-05
DAV:  20    -0.153016890077E+02   -0.13132E-05   -0.94936E-09    48   0.593E-04    0.195E-05
DAV:  21    -0.153016891574E+02   -0.14969E-06   -0.52855E-10    60   0.150E-04
   1 F= -.15301689E+02 E0= -.15188851E+02  d E =-.225676E+00  mag=    -0.0000
/home/yerin/qdft/hchain
method=dft
N = 8
R = 1.7

Remove output/N8/dft_R1.70 ... Done

gen_input:
output/N8/dft_R1.70/POSCAR
output/N8/dft_R1.70/POTCAR
output/N8/dft_R1.70/KPOINTS
output/N8/dft_R1.70/INCAR

 running on    4 total cores
 distrk:  each k-point on    4 cores,    1 groups
 distr:  one band on    1 cores,    4 groups
 using from now: INCAR     
 vasp.5.4.4.18Apr17-6-g9f103f2a35 (build Aug 24 2024 05:40:03) complex          
  
 POSCAR found type information on POSCAR  H 
 POSCAR found :  1 types and       8 ions
 scaLAPACK will be used
 LDA part: xc-table for Pade appr. of Perdew
 POSCAR, INCAR and KPOINTS ok, starting setup
 FFT: planning ...
 WAVECAR not read
 entering main loop
       N       E                     dE             d eps       ncg     rms          rms(c)
DAV:   1     0.167935052578E+02    0.16794E+02   -0.87917E+02    48   0.180E+02
DAV:   2    -0.110900449509E+02   -0.27884E+02   -0.27721E+02    84   0.532E+01
DAV:   3    -0.137743582460E+02   -0.26843E+01   -0.25239E+01    64   0.221E+01
DAV:   4    -0.138945103229E+02   -0.12015E+00   -0.11176E+00    64   0.419E+00
DAV:   5    -0.138961306339E+02   -0.16203E-02   -0.16188E-02    80   0.483E-01    0.129E+00
DAV:   6    -0.139259894077E+02   -0.29859E-01   -0.71739E-03    72   0.484E-01    0.813E-01
DAV:   7    -0.139498478964E+02   -0.23858E-01   -0.21106E-02    80   0.817E-01    0.696E-02
DAV:   8    -0.139518929571E+02   -0.20451E-02   -0.37910E-04    88   0.998E-02    0.214E-02
DAV:   9    -0.139524299951E+02   -0.53704E-03   -0.16896E-04    80   0.539E-02    0.139E-02
DAV:  10    -0.139528755869E+02   -0.44559E-03   -0.16174E-04    64   0.456E-02    0.706E-03
DAV:  11    -0.139528425667E+02    0.33020E-04   -0.25398E-05    64   0.191E-02    0.494E-03
DAV:  12    -0.139535489196E+02   -0.70635E-03   -0.80829E-05    48   0.295E-02    0.233E-03
DAV:  13    -0.139536793235E+02   -0.13040E-03   -0.47047E-06    72   0.818E-03    0.196E-03
DAV:  14    -0.139538316293E+02   -0.15231E-03   -0.70045E-06    48   0.969E-03    0.847E-04
DAV:  15    -0.139538734571E+02   -0.41828E-04   -0.10651E-06    32   0.387E-03    0.432E-04
DAV:  16    -0.139538876203E+02   -0.14163E-04   -0.20423E-07    40   0.194E-03    0.242E-04
DAV:  17    -0.139538998118E+02   -0.12192E-04   -0.29242E-07    32   0.215E-03    0.732E-05
DAV:  18    -0.139539003160E+02   -0.50416E-06   -0.19269E-08    32   0.696E-04
   1 F= -.13953900E+02 E0= -.13841062E+02  d E =-.225676E+00  mag=     0.0000
/home/yerin/qdft/hchain
method=dft
N = 8
R = 1.8

Remove output/N8/dft_R1.80 ... Done

gen_input:
output/N8/dft_R1.80/POSCAR
output/N8/dft_R1.80/POTCAR
output/N8/dft_R1.80/KPOINTS
output/N8/dft_R1.80/INCAR

 running on    4 total cores
 distrk:  each k-point on    4 cores,    1 groups
 distr:  one band on    1 cores,    4 groups
 using from now: INCAR     
 vasp.5.4.4.18Apr17-6-g9f103f2a35 (build Aug 24 2024 05:40:03) complex          
  
 POSCAR found type information on POSCAR  H 
 POSCAR found :  1 types and       8 ions
 scaLAPACK will be used
 LDA part: xc-table for Pade appr. of Perdew
 POSCAR, INCAR and KPOINTS ok, starting setup
 FFT: planning ...
 WAVECAR not read
 entering main loop
       N       E                     dE             d eps       ncg     rms          rms(c)
DAV:   1     0.171628995898E+02    0.17163E+02   -0.95968E+02    48   0.188E+02
DAV:   2    -0.997399317686E+01   -0.27137E+02   -0.26985E+02    80   0.546E+01
DAV:   3    -0.124559860581E+02   -0.24820E+01   -0.23357E+01    64   0.221E+01
DAV:   4    -0.125829710852E+02   -0.12699E+00   -0.11468E+00    64   0.385E+00
DAV:   5    -0.125845607070E+02   -0.15896E-02   -0.15872E-02    48   0.483E-01    0.127E+00
DAV:   6    -0.126191961194E+02   -0.34635E-01   -0.70788E-03    80   0.483E-01    0.793E-01
DAV:   7    -0.126493304585E+02   -0.30134E-01   -0.18142E-02    48   0.751E-01    0.582E-02
DAV:   8    -0.126507928760E+02   -0.14624E-02   -0.32758E-04    80   0.835E-02    0.209E-02
DAV:   9    -0.126513951341E+02   -0.60226E-03   -0.13590E-04    56   0.545E-02    0.127E-02
DAV:  10    -0.126516405653E+02   -0.24543E-03   -0.32051E-05    64   0.238E-02    0.859E-03
DAV:  11    -0.126518072111E+02   -0.16665E-03   -0.43103E-05    56   0.248E-02    0.400E-03
DAV:  12    -0.126519314281E+02   -0.12422E-03   -0.87217E-06    48   0.112E-02    0.318E-03
DAV:  13    -0.126521586784E+02   -0.22725E-03   -0.12745E-05    48   0.113E-02    0.134E-03
DAV:  14    -0.126522769586E+02   -0.11828E-03   -0.58030E-06    48   0.792E-03    0.142E-03
DAV:  15    -0.126523442001E+02   -0.67241E-04   -0.24717E-06    48   0.557E-03    0.506E-04
DAV:  16    -0.126523697306E+02   -0.25531E-04   -0.86876E-07    32   0.359E-03    0.365E-04
DAV:  17    -0.126523763727E+02   -0.66421E-05   -0.98191E-08    40   0.137E-03    0.199E-04
DAV:  18    -0.126523796917E+02   -0.33190E-05   -0.49967E-08    32   0.988E-04    0.552E-05
DAV:  19    -0.126523801309E+02   -0.43924E-06   -0.66879E-09    36   0.438E-04
   1 F= -.12652380E+02 E0= -.12539542E+02  d E =-.225676E+00  mag=    -0.0000
/home/yerin/qdft/hchain
method=dft
N = 8
R = 1.9

Remove output/N8/dft_R1.90 ... Done

gen_input:
output/N8/dft_R1.90/POSCAR
output/N8/dft_R1.90/POTCAR
output/N8/dft_R1.90/KPOINTS
output/N8/dft_R1.90/INCAR

 running on    4 total cores
 distrk:  each k-point on    4 cores,    1 groups
 distr:  one band on    1 cores,    4 groups
 using from now: INCAR     
 vasp.5.4.4.18Apr17-6-g9f103f2a35 (build Aug 24 2024 05:40:03) complex          
  
 POSCAR found type information on POSCAR  H 
 POSCAR found :  1 types and       8 ions
 scaLAPACK will be used
 LDA part: xc-table for Pade appr. of Perdew
 POSCAR, INCAR and KPOINTS ok, starting setup
 FFT: planning ...
 WAVECAR not read
 entering main loop
       N       E                     dE             d eps       ncg     rms          rms(c)
DAV:   1     0.944594047041E+01    0.94459E+01   -0.93580E+02    56   0.182E+02
DAV:   2    -0.973622634723E+01   -0.19182E+02   -0.19130E+02    84   0.505E+01
DAV:   3    -0.113289171570E+02   -0.15927E+01   -0.14114E+01    80   0.170E+01
DAV:   4    -0.113494889310E+02   -0.20572E-01   -0.20073E-01    64   0.143E+00
DAV:   5    -0.113495153456E+02   -0.26415E-04   -0.26415E-04    60   0.648E-02    0.129E+00
DAV:   6    -0.113855831387E+02   -0.36068E-01   -0.79356E-03    56   0.499E-01    0.798E-01
DAV:   7    -0.114184623892E+02   -0.32879E-01   -0.17753E-02    52   0.713E-01    0.558E-02
DAV:   8    -0.114197201052E+02   -0.12577E-02   -0.29466E-04    96   0.797E-02    0.168E-02
DAV:   9    -0.114200880062E+02   -0.36790E-03   -0.83220E-05    48   0.441E-02    0.969E-03
DAV:  10    -0.114203293499E+02   -0.24134E-03   -0.38426E-05    48   0.269E-02    0.593E-03
DAV:  11    -0.114204141824E+02   -0.84833E-04   -0.11934E-05    48   0.172E-02    0.281E-03
DAV:  12    -0.114205082369E+02   -0.94054E-04   -0.76502E-06    48   0.118E-02    0.257E-03
DAV:  13    -0.114206071387E+02   -0.98902E-04   -0.45659E-06    48   0.902E-03    0.120E-03
DAV:  14    -0.114206765149E+02   -0.69376E-04   -0.24548E-06    48   0.651E-03    0.108E-03
DAV:  15    -0.114207336911E+02   -0.57176E-04   -0.23817E-06    48   0.585E-03    0.490E-04
DAV:  16    -0.114207522778E+02   -0.18587E-04   -0.54013E-07    32   0.297E-03    0.228E-04
DAV:  17    -0.114207583017E+02   -0.60239E-05   -0.10180E-07    40   0.132E-03    0.152E-04
DAV:  18    -0.114207612661E+02   -0.29643E-05   -0.52421E-08    32   0.980E-04    0.366E-05
DAV:  19    -0.114207618365E+02   -0.57043E-06   -0.58368E-09    48   0.398E-04
   1 F= -.11420762E+02 E0= -.11307924E+02  d E =-.225676E+00  mag=     0.0000
/home/yerin/qdft/hchain
method=dft
N = 8
R = 2.0

Remove output/N8/dft_R2.00 ... Done

gen_input:
output/N8/dft_R2.00/POSCAR
output/N8/dft_R2.00/POTCAR
output/N8/dft_R2.00/KPOINTS
output/N8/dft_R2.00/INCAR

 running on    4 total cores
 distrk:  each k-point on    4 cores,    1 groups
 distr:  one band on    1 cores,    4 groups
 using from now: INCAR     
 vasp.5.4.4.18Apr17-6-g9f103f2a35 (build Aug 24 2024 05:40:03) complex          
  
 POSCAR found type information on POSCAR  H 
 POSCAR found :  1 types and       8 ions
 scaLAPACK will be used
 LDA part: xc-table for Pade appr. of Perdew
 POSCAR, INCAR and KPOINTS ok, starting setup
 FFT: planning ...
 WAVECAR not read
 entering main loop
       N       E                     dE             d eps       ncg     rms          rms(c)
DAV:   1     0.178389928081E+02    0.17839E+02   -0.83953E+02    48   0.183E+02
DAV:   2    -0.531389537463E+01   -0.23153E+02   -0.23052E+02    64   0.493E+01
DAV:   3    -0.100595102218E+02   -0.47456E+01   -0.45690E+01    80   0.265E+01
DAV:   4    -0.102020255587E+02   -0.14252E+00   -0.13273E+00    68   0.427E+00
DAV:   5    -0.102025280297E+02   -0.50247E-03   -0.50232E-03    56   0.230E-01    0.132E+00
DAV:   6    -0.102378280767E+02   -0.35300E-01   -0.91639E-03    56   0.530E-01    0.808E-01
DAV:   7    -0.102711177576E+02   -0.33290E-01   -0.18361E-02    48   0.686E-01    0.576E-02
DAV:   8    -0.102721613501E+02   -0.10436E-02   -0.27075E-04    72   0.881E-02    0.187E-02
DAV:   9    -0.102723500653E+02   -0.18872E-03   -0.36508E-05    56   0.333E-02    0.684E-03
DAV:  10    -0.102724559714E+02   -0.10591E-03   -0.13771E-05    56   0.161E-02    0.612E-03
DAV:  11    -0.102726030203E+02   -0.14705E-03   -0.25753E-05    48   0.177E-02    0.220E-03
DAV:  12    -0.102726388616E+02   -0.35841E-04   -0.10900E-06    32   0.498E-03    0.166E-03
DAV:  13    -0.102727097555E+02   -0.70894E-04   -0.75791E-06    48   0.101E-02    0.907E-04
DAV:  14    -0.102727313479E+02   -0.21592E-04   -0.41292E-07    32   0.371E-03    0.582E-04
DAV:  15    -0.102727837002E+02   -0.52352E-04   -0.24006E-06    48   0.519E-03    0.317E-04
DAV:  16    -0.102728011356E+02   -0.17435E-04   -0.53556E-07    32   0.281E-03    0.135E-04
DAV:  17    -0.102728047455E+02   -0.36099E-05   -0.67166E-08    40   0.948E-04    0.897E-05
DAV:  18    -0.102728087388E+02   -0.39933E-05   -0.78219E-08    36   0.108E-03    0.396E-05
DAV:  19    -0.102728095556E+02   -0.81683E-06   -0.14045E-08    32   0.489E-04
   1 F= -.10272810E+02 E0= -.10159972E+02  d E =-.225676E+00  mag=    -0.0000
/home/yerin/qdft/hchain
method=dft
N = 8
R = 2.1

Remove output/N8/dft_R2.10 ... Done

gen_input:
output/N8/dft_R2.10/POSCAR
output/N8/dft_R2.10/POTCAR
output/N8/dft_R2.10/KPOINTS
output/N8/dft_R2.10/INCAR

 running on    4 total cores
 distrk:  each k-point on    4 cores,    1 groups
 distr:  one band on    1 cores,    4 groups
 using from now: INCAR     
 vasp.5.4.4.18Apr17-6-g9f103f2a35 (build Aug 24 2024 05:40:03) complex          
  
 POSCAR found type information on POSCAR  H 
 POSCAR found :  1 types and       8 ions
 scaLAPACK will be used
 LDA part: xc-table for Pade appr. of Perdew
 POSCAR, INCAR and KPOINTS ok, starting setup
 FFT: planning ...
 WAVECAR not read
 entering main loop
       N       E                     dE             d eps       ncg     rms          rms(c)
DAV:   1     0.168728421189E+02    0.16873E+02   -0.79144E+02    48   0.175E+02
DAV:   2    -0.677587782887E+01   -0.23649E+02   -0.23526E+02    92   0.515E+01
DAV:   3    -0.908643335645E+01   -0.23106E+01   -0.21113E+01    72   0.198E+01
DAV:   4    -0.914437280730E+01   -0.57939E-01   -0.57145E-01    56   0.298E+00
DAV:   5    -0.914495206979E+01   -0.57926E-03   -0.57921E-03    72   0.299E-01    0.135E+00
DAV:   6    -0.917755911171E+01   -0.32607E-01   -0.10551E-02    48   0.575E-01    0.818E-01
DAV:   7    -0.921000683330E+01   -0.32448E-01   -0.19742E-02    64   0.681E-01    0.599E-02
DAV:   8    -0.921106828537E+01   -0.10615E-02   -0.31564E-04    48   0.103E-01    0.178E-02
DAV:   9    -0.921116724259E+01   -0.98957E-04   -0.41696E-05    56   0.346E-02    0.439E-03
DAV:  10    -0.921124608683E+01   -0.78844E-04   -0.83969E-06    56   0.110E-02    0.285E-03
DAV:  11    -0.921128109683E+01   -0.35010E-04   -0.47344E-06    48   0.798E-03    0.169E-03
DAV:  12    -0.921131046708E+01   -0.29370E-04   -0.57301E-07    32   0.293E-03    0.125E-03
DAV:  13    -0.921134265028E+01   -0.32183E-04   -0.24923E-06    48   0.530E-03    0.499E-04
DAV:  14    -0.921135191711E+01   -0.92668E-05   -0.11448E-07    32   0.152E-03    0.386E-04
DAV:  15    -0.921137776988E+01   -0.25853E-04   -0.88294E-07    32   0.302E-03    0.175E-04
DAV:  16    -0.921138284425E+01   -0.50744E-05   -0.14504E-07    32   0.122E-03    0.131E-04
DAV:  17    -0.921138713972E+01   -0.42955E-05   -0.72943E-08    32   0.978E-04    0.656E-05
DAV:  18    -0.921138840303E+01   -0.12633E-05   -0.24750E-08    32   0.578E-04    0.200E-05
DAV:  19    -0.921138880787E+01   -0.40484E-06   -0.36621E-09    32   0.268E-04
   1 F= -.92113888E+01 E0= -.90985509E+01  d E =-.225676E+00  mag=    -0.0000
/home/yerin/qdft/hchain
method=dft
N = 8
R = 2.2

Remove output/N8/dft_R2.20 ... Done

gen_input:
output/N8/dft_R2.20/POSCAR
output/N8/dft_R2.20/POTCAR
output/N8/dft_R2.20/KPOINTS
output/N8/dft_R2.20/INCAR

 running on    4 total cores
 distrk:  each k-point on    4 cores,    1 groups
 distr:  one band on    1 cores,    4 groups
 using from now: INCAR     
 vasp.5.4.4.18Apr17-6-g9f103f2a35 (build Aug 24 2024 05:40:03) complex          
  
 POSCAR found type information on POSCAR  H 
 POSCAR found :  1 types and       8 ions
 scaLAPACK will be used
 LDA part: xc-table for Pade appr. of Perdew
 POSCAR, INCAR and KPOINTS ok, starting setup
 FFT: planning ...
 WAVECAR not read
 entering main loop
       N       E                     dE             d eps       ncg     rms          rms(c)
DAV:   1     0.144931145710E+02    0.14493E+02   -0.75880E+02    48   0.165E+02
DAV:   2    -0.657499977833E+01   -0.21068E+02   -0.20997E+02    96   0.492E+01
DAV:   3    -0.808705958428E+01   -0.15121E+01   -0.13523E+01    60   0.168E+01
DAV:   4    -0.818274601163E+01   -0.95686E-01   -0.85240E-01    48   0.323E+00
DAV:   5    -0.818388762400E+01   -0.11416E-02   -0.11401E-02    80   0.350E-01    0.137E+00
DAV:   6    -0.821073788917E+01   -0.26850E-01   -0.10326E-02    56   0.493E-01    0.834E-01
DAV:   7    -0.824324579001E+01   -0.32508E-01   -0.22310E-02    56   0.728E-01    0.628E-02
DAV:   8    -0.824435709060E+01   -0.11113E-02   -0.40459E-04    64   0.121E-01    0.151E-02
DAV:   9    -0.824439467417E+01   -0.37584E-04   -0.30289E-05    64   0.311E-02    0.299E-03
DAV:  10    -0.824441181227E+01   -0.17138E-04   -0.27591E-06    60   0.659E-03    0.199E-03
DAV:  11    -0.824442283956E+01   -0.11027E-04   -0.11633E-06    44   0.426E-03    0.987E-04
DAV:  12    -0.824443382852E+01   -0.10989E-04   -0.43628E-07    32   0.258E-03    0.895E-04
DAV:  13    -0.824444831577E+01   -0.14487E-04   -0.49001E-07    32   0.241E-03    0.325E-04
DAV:  14    -0.824445365448E+01   -0.53387E-05   -0.10799E-07    32   0.122E-03    0.360E-04
DAV:  15    -0.824446092268E+01   -0.72682E-05   -0.19935E-07    32   0.151E-03    0.117E-04
DAV:  16    -0.824446365920E+01   -0.27365E-05   -0.51473E-08    32   0.807E-04    0.149E-04
DAV:  17    -0.824446675549E+01   -0.30963E-05   -0.58197E-08    32   0.805E-04    0.445E-05
DAV:  18    -0.824446760540E+01   -0.84991E-06   -0.14374E-08    32   0.438E-04
   1 F= -.82444676E+01 E0= -.81316297E+01  d E =-.225676E+00  mag=    -0.0000
/home/yerin/qdft/hchain
method=dft
N = 8
R = 2.3

Remove output/N8/dft_R2.30 ... Done

gen_input:
output/N8/dft_R2.30/POSCAR
output/N8/dft_R2.30/POTCAR
output/N8/dft_R2.30/KPOINTS
output/N8/dft_R2.30/INCAR

 running on    4 total cores
 distrk:  each k-point on    4 cores,    1 groups
 distr:  one band on    1 cores,    4 groups
 using from now: INCAR     
 vasp.5.4.4.18Apr17-6-g9f103f2a35 (build Aug 24 2024 05:40:03) complex          
  
 POSCAR found type information on POSCAR  H 
 POSCAR found :  1 types and       8 ions
 scaLAPACK will be used
 LDA part: xc-table for Pade appr. of Perdew
 POSCAR, INCAR and KPOINTS ok, starting setup
 FFT: planning ...
 WAVECAR not read
 entering main loop
       N       E                     dE             d eps       ncg     rms          rms(c)
DAV:   1     0.166486484199E+02    0.16649E+02   -0.76549E+02    48   0.175E+02
DAV:   2    -0.545932244698E+01   -0.22108E+02   -0.22024E+02    92   0.498E+01
DAV:   3    -0.723870614216E+01   -0.17794E+01   -0.15949E+01    60   0.180E+01
DAV:   4    -0.731575967127E+01   -0.77054E-01   -0.74501E-01    52   0.345E+00
DAV:   5    -0.731657986619E+01   -0.82019E-03   -0.81991E-03    80   0.340E-01    0.136E+00
DAV:   6    -0.733831275702E+01   -0.21733E-01   -0.10796E-02    48   0.484E-01    0.826E-01
DAV:   7    -0.736881189013E+01   -0.30499E-01   -0.23977E-02    48   0.737E-01    0.650E-02
DAV:   8    -0.737004171954E+01   -0.12298E-02   -0.55419E-04    56   0.134E-01    0.152E-02
DAV:   9    -0.737008507707E+01   -0.43358E-04   -0.26525E-05    56   0.296E-02    0.223E-03
DAV:  10    -0.737008775484E+01   -0.26778E-05   -0.10495E-06    32   0.491E-03    0.145E-03
DAV:  11    -0.737008822896E+01   -0.47412E-06   -0.34739E-07    40   0.273E-03
   1 F= -.73700882E+01 E0= -.72572503E+01  d E =-.225676E+00  mag=    -0.0000
/home/yerin/qdft/hchain
method=dft
N = 8
R = 2.4

Remove output/N8/dft_R2.40 ... Done

gen_input:
output/N8/dft_R2.40/POSCAR
output/N8/dft_R2.40/POTCAR
output/N8/dft_R2.40/KPOINTS
output/N8/dft_R2.40/INCAR

 running on    4 total cores
 distrk:  each k-point on    4 cores,    1 groups
 distr:  one band on    1 cores,    4 groups
 using from now: INCAR     
 vasp.5.4.4.18Apr17-6-g9f103f2a35 (build Aug 24 2024 05:40:03) complex          
  
 POSCAR found type information on POSCAR  H 
 POSCAR found :  1 types and       8 ions
 scaLAPACK will be used
 LDA part: xc-table for Pade appr. of Perdew
 POSCAR, INCAR and KPOINTS ok, starting setup
 FFT: planning ...
 WAVECAR not read
 entering main loop
       N       E                     dE             d eps       ncg     rms          rms(c)
DAV:   1     0.175060574898E+02    0.17506E+02   -0.85481E+02    48   0.179E+02
DAV:   2    -0.442948399628E+01   -0.21936E+02   -0.21823E+02    96   0.519E+01
DAV:   3    -0.640848996662E+01   -0.19790E+01   -0.18322E+01    64   0.198E+01
DAV:   4    -0.653300538361E+01   -0.12452E+00   -0.11167E+00    48   0.403E+00
DAV:   5    -0.653460080099E+01   -0.15954E-02   -0.15932E-02    64   0.424E-01    0.135E+00
DAV:   6    -0.655134453599E+01   -0.16744E-01   -0.11762E-02    48   0.490E-01    0.808E-01
DAV:   7    -0.657964985741E+01   -0.28305E-01   -0.24737E-02    48   0.733E-01    0.674E-02
DAV:   8    -0.658092238018E+01   -0.12725E-02   -0.79469E-04    56   0.150E-01    0.221E-02
DAV:   9    -0.658101659860E+01   -0.94218E-04   -0.25474E-05    56   0.292E-02    0.245E-03
DAV:  10    -0.658102910856E+01   -0.12510E-04   -0.81302E-07    40   0.448E-03    0.140E-03
DAV:  11    -0.658104153632E+01   -0.12428E-04   -0.81284E-07    40   0.404E-03    0.537E-04
DAV:  12    -0.658104542726E+01   -0.38909E-05   -0.14538E-07    40   0.191E-03    0.256E-04
DAV:  13    -0.658105030638E+01   -0.48791E-05   -0.91740E-08    32   0.125E-03    0.215E-04
DAV:  14    -0.658105407207E+01   -0.37657E-05   -0.13530E-07    32   0.129E-03    0.119E-04
DAV:  15    -0.658105521686E+01   -0.11448E-05   -0.25528E-08    32   0.635E-04    0.110E-04
DAV:  16    -0.658105620059E+01   -0.98374E-06   -0.11909E-08    32   0.516E-04
   1 F= -.65810562E+01 E0= -.64682183E+01  d E =-.225676E+00  mag=    -0.0000
/home/yerin/qdft/hchain
method=dft
N = 8
R = 2.5

Remove output/N8/dft_R2.50 ... Done

gen_input:
output/N8/dft_R2.50/POSCAR
output/N8/dft_R2.50/POTCAR
output/N8/dft_R2.50/KPOINTS
output/N8/dft_R2.50/INCAR

 running on    4 total cores
 distrk:  each k-point on    4 cores,    1 groups
 distr:  one band on    1 cores,    4 groups
 using from now: INCAR     
 vasp.5.4.4.18Apr17-6-g9f103f2a35 (build Aug 24 2024 05:40:03) complex          
  
 POSCAR found type information on POSCAR  H 
 POSCAR found :  1 types and       8 ions
 scaLAPACK will be used
 LDA part: xc-table for Pade appr. of Perdew
 POSCAR, INCAR and KPOINTS ok, starting setup
 FFT: planning ...
 WAVECAR not read
 entering main loop
       N       E                     dE             d eps       ncg     rms          rms(c)
DAV:   1     0.196626989226E+02    0.19663E+02   -0.72498E+02    48   0.166E+02
DAV:   2    -0.198694868738E+01   -0.21650E+02   -0.21527E+02    72   0.489E+01
DAV:   3    -0.557797989821E+01   -0.35910E+01   -0.34402E+01    60   0.229E+01
DAV:   4    -0.582178231561E+01   -0.24380E+00   -0.23334E+00    56   0.577E+00
DAV:   5    -0.582504665285E+01   -0.32643E-02   -0.32628E-02    60   0.597E-01    0.134E+00
DAV:   6    -0.583712133912E+01   -0.12075E-01   -0.12339E-02    48   0.492E-01    0.789E-01
DAV:   7    -0.586322738126E+01   -0.26106E-01   -0.25179E-02    48   0.729E-01    0.692E-02
DAV:   8    -0.586456528069E+01   -0.13379E-02   -0.91480E-04    56   0.153E-01    0.308E-02
DAV:   9    -0.586472188243E+01   -0.15660E-03   -0.42019E-05    56   0.380E-02    0.939E-03
DAV:  10    -0.586476122799E+01   -0.39346E-04   -0.55737E-06    56   0.102E-02    0.175E-03
DAV:  11    -0.586478838236E+01   -0.27154E-04   -0.14226E-06    48   0.499E-03    0.121E-03
DAV:  12    -0.586481097729E+01   -0.22595E-04   -0.16807E-06    48   0.506E-03    0.575E-04
DAV:  13    -0.586481705245E+01   -0.60752E-05   -0.20420E-07    40   0.193E-03    0.464E-04
DAV:  14    -0.586482639690E+01   -0.93444E-05   -0.85334E-07    32   0.302E-03    0.234E-04
DAV:  15    -0.586482743918E+01   -0.10423E-05   -0.10374E-07    36   0.122E-03    0.145E-04
DAV:  16    -0.586482965215E+01   -0.22130E-05   -0.31278E-08    32   0.700E-04    0.889E-05
DAV:  17    -0.586483115548E+01   -0.15033E-05   -0.25639E-08    32   0.573E-04    0.411E-05
DAV:  18    -0.586483170564E+01   -0.55016E-06   -0.57042E-09    40   0.290E-04
   1 F= -.58648317E+01 E0= -.57519938E+01  d E =-.225676E+00  mag=     0.0000
/home/yerin/qdft/hchain
method=dft
N = 8
R = 2.6

Remove output/N8/dft_R2.60 ... Done

gen_input:
output/N8/dft_R2.60/POSCAR
output/N8/dft_R2.60/POTCAR
output/N8/dft_R2.60/KPOINTS
output/N8/dft_R2.60/INCAR

 running on    4 total cores
 distrk:  each k-point on    4 cores,    1 groups
 distr:  one band on    1 cores,    4 groups
 using from now: INCAR     
 vasp.5.4.4.18Apr17-6-g9f103f2a35 (build Aug 24 2024 05:40:03) complex          
  
 POSCAR found type information on POSCAR  H 
 POSCAR found :  1 types and       8 ions
 scaLAPACK will be used
 LDA part: xc-table for Pade appr. of Perdew
 POSCAR, INCAR and KPOINTS ok, starting setup
 FFT: planning ...
 WAVECAR not read
 entering main loop
       N       E                     dE             d eps       ncg     rms          rms(c)
DAV:   1     0.194309260057E+02    0.19431E+02   -0.67485E+02    48   0.156E+02
DAV:   2    -0.916505418030E+00   -0.20347E+02   -0.20249E+02    72   0.478E+01
DAV:   3    -0.504333233393E+01   -0.41268E+01   -0.39346E+01    56   0.237E+01
DAV:   4    -0.518648001975E+01   -0.14315E+00   -0.14025E+00    60   0.486E+00
DAV:   5    -0.518778757926E+01   -0.13076E-02   -0.13073E-02    60   0.427E-01    0.131E+00
DAV:   6    -0.519557220780E+01   -0.77846E-02   -0.12053E-02    48   0.474E-01    0.765E-01
DAV:   7    -0.521946949086E+01   -0.23897E-01   -0.25314E-02    48   0.725E-01    0.693E-02
DAV:   8    -0.522100407836E+01   -0.15346E-02   -0.12180E-03    56   0.170E-01    0.296E-02
DAV:   9    -0.522114581933E+01   -0.14174E-03   -0.25847E-05    60   0.293E-02    0.849E-03
DAV:  10    -0.522118425041E+01   -0.38431E-04   -0.37391E-06    56   0.852E-03    0.206E-03
DAV:  11    -0.522124415873E+01   -0.59908E-04   -0.57843E-06    56   0.894E-03    0.115E-03
DAV:  12    -0.522126167300E+01   -0.17514E-04   -0.11172E-06    40   0.423E-03    0.804E-04
DAV:  13    -0.522127580467E+01   -0.14132E-04   -0.11285E-06    32   0.352E-03    0.600E-04
DAV:  14    -0.522127955972E+01   -0.37550E-05   -0.49439E-07    32   0.235E-03    0.228E-04
DAV:  15    -0.522128143556E+01   -0.18758E-05   -0.56206E-08    40   0.103E-03    0.203E-04
DAV:  16    -0.522128571483E+01   -0.42793E-05   -0.96872E-08    32   0.105E-03    0.112E-04
DAV:  17    -0.522128750411E+01   -0.17893E-05   -0.56945E-08    32   0.783E-04    0.693E-05
DAV:  18    -0.522128822560E+01   -0.72149E-06   -0.78684E-09    32   0.347E-04
   1 F= -.52212882E+01 E0= -.51084497E+01  d E =-.225677E+00  mag=     0.0000
/home/yerin/qdft/hchain
method=dft
N = 8
R = 2.7

Remove output/N8/dft_R2.70 ... Done

gen_input:
output/N8/dft_R2.70/POSCAR
output/N8/dft_R2.70/POTCAR
output/N8/dft_R2.70/KPOINTS
output/N8/dft_R2.70/INCAR

 running on    4 total cores
 distrk:  each k-point on    4 cores,    1 groups
 distr:  one band on    1 cores,    4 groups
 using from now: INCAR     
 vasp.5.4.4.18Apr17-6-g9f103f2a35 (build Aug 24 2024 05:40:03) complex          
  
 POSCAR found type information on POSCAR  H 
 POSCAR found :  1 types and       8 ions
 scaLAPACK will be used
 LDA part: xc-table for Pade appr. of Perdew
 POSCAR, INCAR and KPOINTS ok, starting setup
 FFT: planning ...
 WAVECAR not read
 entering main loop
       N       E                     dE             d eps       ncg     rms          rms(c)
DAV:   1     0.168582347818E+02    0.16858E+02   -0.70873E+02    48   0.159E+02
DAV:   2    -0.265425798866E+01   -0.19512E+02   -0.19457E+02    96   0.468E+01
DAV:   3    -0.447700731337E+01   -0.18227E+01   -0.16858E+01    64   0.175E+01
DAV:   4    -0.461208893786E+01   -0.13508E+00   -0.11554E+00    64   0.374E+00
DAV:   5    -0.461411204351E+01   -0.20231E-02   -0.20192E-02    56   0.430E-01    0.128E+00
DAV:   6    -0.461805530294E+01   -0.39433E-02   -0.12291E-02    48   0.482E-01    0.739E-01
DAV:   7    -0.464013917395E+01   -0.22084E-01   -0.24857E-02    48   0.717E-01    0.695E-02
DAV:   8    -0.464176209206E+01   -0.16229E-02   -0.14903E-03    56   0.183E-01    0.321E-02
DAV:   9    -0.464198104752E+01   -0.21896E-03   -0.29551E-05    56   0.290E-02    0.347E-03
DAV:  10    -0.464201857409E+01   -0.37527E-04   -0.19341E-06    48   0.599E-03    0.228E-03
DAV:  11    -0.464208738289E+01   -0.68809E-04   -0.75205E-06    56   0.982E-03    0.147E-03
DAV:  12    -0.464210667111E+01   -0.19288E-04   -0.13967E-06    48   0.422E-03    0.965E-04
DAV:  13    -0.464212319136E+01   -0.16520E-04   -0.25509E-06    48   0.482E-03    0.666E-04
DAV:  14    -0.464212582600E+01   -0.26346E-05   -0.11876E-07    36   0.161E-03    0.289E-04
DAV:  15    -0.464213090952E+01   -0.50835E-05   -0.99382E-08    32   0.109E-03    0.171E-04
DAV:  16    -0.464213585614E+01   -0.49466E-05   -0.21102E-07    32   0.150E-03    0.878E-05
DAV:  17    -0.464213656382E+01   -0.70769E-06   -0.25135E-08    32   0.577E-04
   1 F= -.46421366E+01 E0= -.45292895E+01  d E =-.225694E+00  mag=     0.0000
/home/yerin/qdft/hchain
method=dft
N = 8
R = 2.8

Remove output/N8/dft_R2.80 ... Done

gen_input:
output/N8/dft_R2.80/POSCAR
output/N8/dft_R2.80/POTCAR
output/N8/dft_R2.80/KPOINTS
output/N8/dft_R2.80/INCAR

 running on    4 total cores
 distrk:  each k-point on    4 cores,    1 groups
 distr:  one band on    1 cores,    4 groups
 using from now: INCAR     
 vasp.5.4.4.18Apr17-6-g9f103f2a35 (build Aug 24 2024 05:40:03) complex          
  
 POSCAR found type information on POSCAR  H 
 POSCAR found :  1 types and       8 ions
 scaLAPACK will be used
 LDA part: xc-table for Pade appr. of Perdew
 POSCAR, INCAR and KPOINTS ok, starting setup
 FFT: planning ...
 WAVECAR not read
 entering main loop
       N       E                     dE             d eps       ncg     rms          rms(c)
DAV:   1     0.182204687477E+02    0.18220E+02   -0.74043E+02    48   0.167E+02
DAV:   2    -0.214578659572E+01   -0.20366E+02   -0.20283E+02    88   0.476E+01
DAV:   3    -0.396566008226E+01   -0.18199E+01   -0.17047E+01    64   0.186E+01
DAV:   4    -0.409463822247E+01   -0.12898E+00   -0.11705E+00    60   0.379E+00
DAV:   5    -0.409642660921E+01   -0.17884E-02   -0.17863E-02    56   0.400E-01    0.125E+00
DAV:   6    -0.409731824563E+01   -0.89164E-03   -0.12294E-02    48   0.496E-01    0.714E-01
DAV:   7    -0.411757673460E+01   -0.20258E-01   -0.24051E-02    48   0.706E-01    0.688E-02
DAV:   8    -0.411926079096E+01   -0.16841E-02   -0.16425E-03    56   0.188E-01    0.345E-02
DAV:   9    -0.411952822157E+01   -0.26743E-03   -0.33281E-05    56   0.310E-02    0.349E-03
DAV:  10    -0.411957675017E+01   -0.48529E-04   -0.27651E-06    56   0.710E-03    0.263E-03
DAV:  11    -0.411965565690E+01   -0.78907E-04   -0.98194E-06    56   0.110E-02    0.156E-03
DAV:  12    -0.411967719511E+01   -0.21538E-04   -0.19829E-06    56   0.470E-03    0.108E-03
DAV:  13    -0.411969014621E+01   -0.12951E-04   -0.18736E-06    48   0.445E-03    0.677E-04
DAV:  14    -0.411969403942E+01   -0.38932E-05   -0.93483E-08    36   0.145E-03    0.295E-04
DAV:  15    -0.411970172987E+01   -0.76905E-05   -0.22475E-07    32   0.150E-03    0.176E-04
DAV:  16    -0.411970576626E+01   -0.40364E-05   -0.19338E-07    32   0.136E-03    0.946E-05
DAV:  17    -0.411970676627E+01   -0.10000E-05   -0.19818E-08    32   0.497E-04    0.626E-05
DAV:  18    -0.411970783005E+01   -0.10638E-05   -0.12187E-08    32   0.468E-04    0.215E-05
DAV:  19    -0.411970792125E+01   -0.91204E-07   -0.94110E-10    36   0.150E-04
   1 F= -.41197079E+01 E0= -.40067917E+01  d E =-.225833E+00  mag=    -0.0000
/home/yerin/qdft/hchain
method=dft
N = 8
R = 2.9

Remove output/N8/dft_R2.90 ... Done

gen_input:
output/N8/dft_R2.90/POSCAR
output/N8/dft_R2.90/POTCAR
output/N8/dft_R2.90/KPOINTS
output/N8/dft_R2.90/INCAR

 running on    4 total cores
 distrk:  each k-point on    4 cores,    1 groups
 distr:  one band on    1 cores,    4 groups
 using from now: INCAR     
 vasp.5.4.4.18Apr17-6-g9f103f2a35 (build Aug 24 2024 05:40:03) complex          
  
 POSCAR found type information on POSCAR  H 
 POSCAR found :  1 types and       8 ions
 scaLAPACK will be used
 LDA part: xc-table for Pade appr. of Perdew
 POSCAR, INCAR and KPOINTS ok, starting setup
 FFT: planning ...
 WAVECAR not read
 entering main loop
       N       E                     dE             d eps       ncg     rms          rms(c)
DAV:   1     0.215589889298E+02    0.21559E+02   -0.71624E+02    48   0.167E+02
DAV:   2    -0.103697580184E+01   -0.22596E+02   -0.22438E+02    84   0.514E+01
DAV:   3    -0.352369714265E+01   -0.24867E+01   -0.23470E+01    60   0.196E+01
DAV:   4    -0.364157476805E+01   -0.11788E+00   -0.11357E+00    56   0.426E+00
DAV:   5    -0.364306655573E+01   -0.14918E-02   -0.14911E-02    60   0.410E-01    0.121E+00
DAV:   6    -0.364304090686E+01    0.25649E-04   -0.12189E-02    56   0.465E-01    0.697E-01
DAV:   7    -0.366006709275E+01   -0.17026E-01   -0.22096E-02    48   0.612E-01    0.656E-02
DAV:   8    -0.366182667110E+01   -0.17596E-02   -0.13552E-03    56   0.168E-01    0.217E-02
DAV:   9    -0.366199537727E+01   -0.16871E-03   -0.30963E-05    56   0.276E-02    0.565E-03
DAV:  10    -0.366205352780E+01   -0.58151E-04   -0.40491E-06    56   0.857E-03    0.289E-03
DAV:  11    -0.366214023107E+01   -0.86703E-04   -0.10062E-05    56   0.110E-02    0.161E-03
DAV:  12    -0.366217002955E+01   -0.29798E-04   -0.23393E-06    56   0.535E-03    0.119E-03
DAV:  13    -0.366218936576E+01   -0.19336E-04   -0.34512E-06    48   0.572E-03    0.797E-04
DAV:  14    -0.366219402395E+01   -0.46582E-05   -0.14362E-07    36   0.177E-03    0.339E-04
DAV:  15    -0.366220191050E+01   -0.78865E-05   -0.21874E-07    32   0.158E-03    0.249E-04
DAV:  16    -0.366220761491E+01   -0.57044E-05   -0.30797E-07    32   0.174E-03    0.108E-04
DAV:  17    -0.366220860684E+01   -0.99193E-06   -0.33612E-08    32   0.615E-04
   1 F= -.36622086E+01 E0= -.35489451E+01  d E =-.226527E+00  mag=     0.0000
/home/yerin/qdft/hchain
method=dft
N = 8
R = 3.0

Remove output/N8/dft_R3.00 ... Done

gen_input:
output/N8/dft_R3.00/POSCAR
output/N8/dft_R3.00/POTCAR
output/N8/dft_R3.00/KPOINTS
output/N8/dft_R3.00/INCAR

 running on    4 total cores
 distrk:  each k-point on    4 cores,    1 groups
 distr:  one band on    1 cores,    4 groups
 using from now: INCAR     
 vasp.5.4.4.18Apr17-6-g9f103f2a35 (build Aug 24 2024 05:40:03) complex          
  
 POSCAR found type information on POSCAR  H 
 POSCAR found :  1 types and       8 ions
 scaLAPACK will be used
 LDA part: xc-table for Pade appr. of Perdew
 POSCAR, INCAR and KPOINTS ok, starting setup
 FFT: planning ...
 WAVECAR not read
 entering main loop
       N       E                     dE             d eps       ncg     rms          rms(c)
DAV:   1     0.170736303689E+02    0.17074E+02   -0.71814E+02    48   0.158E+02
DAV:   2    -0.171313825638E+01   -0.18787E+02   -0.18694E+02    84   0.471E+01
DAV:   3    -0.311152898564E+01   -0.13984E+01   -0.12636E+01    64   0.172E+01
DAV:   4    -0.323555645004E+01   -0.12403E+00   -0.10917E+00    64   0.364E+00
DAV:   5    -0.323716354679E+01   -0.16071E-02   -0.16050E-02    52   0.373E-01    0.116E+00
DAV:   6    -0.323547217075E+01    0.16914E-02   -0.11699E-02    56   0.460E-01    0.667E-01
DAV:   7    -0.325098490204E+01   -0.15513E-01   -0.20717E-02    48   0.589E-01    0.637E-02
DAV:   8    -0.325275566197E+01   -0.17708E-02   -0.13744E-03    56   0.167E-01    0.204E-02
DAV:   9    -0.325293467782E+01   -0.17902E-03   -0.30292E-05    56   0.267E-02    0.401E-03
DAV:  10    -0.325299591655E+01   -0.61239E-04   -0.36680E-06    56   0.804E-03    0.292E-03
DAV:  11    -0.325307274596E+01   -0.76829E-04   -0.80292E-06    56   0.985E-03    0.169E-03
DAV:  12    -0.325311504429E+01   -0.42298E-04   -0.61631E-06    56   0.786E-03    0.167E-03
DAV:  13    -0.325312543848E+01   -0.10394E-04   -0.14602E-06    32   0.407E-03    0.842E-04
DAV:  14    -0.325313216155E+01   -0.67231E-05   -0.18398E-07    32   0.161E-03    0.346E-04
DAV:  15    -0.325314162185E+01   -0.94603E-05   -0.33889E-07    32   0.184E-03    0.232E-04
DAV:  16    -0.325314522826E+01   -0.36064E-05   -0.19242E-07    32   0.131E-03    0.143E-04
DAV:  17    -0.325314680623E+01   -0.15780E-05   -0.28188E-08    32   0.564E-04    0.133E-04
DAV:  18    -0.325314784325E+01   -0.10370E-05   -0.11110E-08    32   0.438E-04    0.353E-05
DAV:  19    -0.325314796024E+01   -0.11699E-06   -0.10496E-09    36   0.155E-04
   1 F= -.32531480E+01 E0= -.31386920E+01  d E =-.228912E+00  mag=    -0.0000
/home/yerin/qdft/hchain

# Time Start   : 2024. 11. 22. () 21:37:49 KST
# Time End     : 2024. 11. 22. () 21:50:58 KST
# Time Elapsed : 0h 13m 8.470459483s

