
The number of threads in each node for OpenMP parallelization is 1.


*******************************************************
*******************************************************
 Welcome to OpenMX   Ver. 3.9.9                           
 Copyright (C), 2002-2019, T. Ozaki                    
 OpenMX comes with ABSOLUTELY NO WARRANTY.             
 This is free software, and you are welcome to         
 redistribute it under the constitution of the GNU-GPL.
*******************************************************
*******************************************************



<Input_std>  Your input file was normally read.
<Input_std>  The system includes 1 species and 8 atoms.

*******************************************************
                     PAO and VPS                       
*******************************************************

<SetPara_DFT>  PAOs of species H were normally found.
<SetPara_DFT>  VPSs of species H were normally found.
               H_CA19.vps is j-dependent.
               In case of scf.SpinOrbit.Coupling=off,
               j-dependent pseudo potentials are averaged by j-degeneracy,
               which corresponds to a scalar relativistic treatment.

*******************************************************
     Fourier transform of PAO and projectors of VNL    
*******************************************************

<FT_PAO>          Fourier transform of pseudo atomic orbitals
<FT_NLP>          Fourier transform of non-local projectors
<FT_ProExpn_VNA>  Fourier transform of VNA separable projectors
<FT_VNA>          Fourier transform of VNA potentials
<FT_ProductPAO>   Fourier transform of product of PAOs

*******************************************************
  Allocation of atoms to processors at MD_iter=    1     
*******************************************************

 proc =   0  # of atoms=   2  estimated weight=         2.00000
 proc =   1  # of atoms=   2  estimated weight=         2.00000
 proc =   2  # of atoms=   2  estimated weight=         2.00000
 proc =   3  # of atoms=   2  estimated weight=         2.00000




*******************************************************
        Analysis of neighbors and setting of grids        
*******************************************************

TFNAN=     172   Average FNAN=  21.50000
TSNAN=       0   Average SNAN=   0.00000
<truncation> CpyCell= 1 ct_AN=   1 FNAN SNAN  20   0
<truncation> CpyCell= 1 ct_AN=   2 FNAN SNAN  21   0
<truncation> CpyCell= 1 ct_AN=   3 FNAN SNAN  22   0
<truncation> CpyCell= 1 ct_AN=   4 FNAN SNAN  23   0
<truncation> CpyCell= 1 ct_AN=   5 FNAN SNAN  23   0
<truncation> CpyCell= 1 ct_AN=   6 FNAN SNAN  22   0
<truncation> CpyCell= 1 ct_AN=   7 FNAN SNAN  21   0
<truncation> CpyCell= 1 ct_AN=   8 FNAN SNAN  20   0
TFNAN=     192   Average FNAN=  24.00000
TSNAN=       0   Average SNAN=   0.00000
<truncation> CpyCell= 2 ct_AN=   1 FNAN SNAN  24   0
<truncation> CpyCell= 2 ct_AN=   2 FNAN SNAN  24   0
<truncation> CpyCell= 2 ct_AN=   3 FNAN SNAN  24   0
<truncation> CpyCell= 2 ct_AN=   4 FNAN SNAN  24   0
<truncation> CpyCell= 2 ct_AN=   5 FNAN SNAN  24   0
<truncation> CpyCell= 2 ct_AN=   6 FNAN SNAN  24   0
<truncation> CpyCell= 2 ct_AN=   7 FNAN SNAN  24   0
<truncation> CpyCell= 2 ct_AN=   8 FNAN SNAN  24   0
TFNAN=     192   Average FNAN=  24.00000
TSNAN=       0   Average SNAN=   0.00000
<truncation> CpyCell= 3 ct_AN=   1 FNAN SNAN  24   0
<truncation> CpyCell= 3 ct_AN=   2 FNAN SNAN  24   0
<truncation> CpyCell= 3 ct_AN=   3 FNAN SNAN  24   0
<truncation> CpyCell= 3 ct_AN=   4 FNAN SNAN  24   0
<truncation> CpyCell= 3 ct_AN=   5 FNAN SNAN  24   0
<truncation> CpyCell= 3 ct_AN=   6 FNAN SNAN  24   0
<truncation> CpyCell= 3 ct_AN=   7 FNAN SNAN  24   0
<truncation> CpyCell= 3 ct_AN=   8 FNAN SNAN  24   0
TFNAN=     192   Average FNAN=  24.00000
TSNAN=       0   Average SNAN=   0.00000
<truncation> CpyCell= 3 ct_AN=   1 FNAN SNAN  24   0
<truncation> CpyCell= 3 ct_AN=   2 FNAN SNAN  24   0
<truncation> CpyCell= 3 ct_AN=   3 FNAN SNAN  24   0
<truncation> CpyCell= 3 ct_AN=   4 FNAN SNAN  24   0
<truncation> CpyCell= 3 ct_AN=   5 FNAN SNAN  24   0
<truncation> CpyCell= 3 ct_AN=   6 FNAN SNAN  24   0
<truncation> CpyCell= 3 ct_AN=   7 FNAN SNAN  24   0
<truncation> CpyCell= 3 ct_AN=   8 FNAN SNAN  24   0
<Check_System> The system is chain.
lattice vectors (bohr)
A  =  7.558903954316,  0.000000000000,  0.000000000000
B  =  0.000000000000, 28.345889828684,  0.000000000000
C  =  0.000000000000,  0.000000000000, 28.345889828684
reciprocal lattice vectors (bohr^-1)
RA =  0.831229678953,  0.000000000000,  0.000000000000
RB =  0.000000000000,  0.221661247721,  0.000000000000
RC =  0.000000000000,  0.000000000000,  0.221661247721
Grid_Origin  0.000000000000 -13.700513417197 -13.700513417197
Cell_Volume =   6073.499733393734 (Bohr^3)
GridVol     =      0.843541629638 (Bohr^3)
Grid_Origin  0.000000000000 -13.700513417197 -13.700513417197
Cell_Volume =   6073.499733393734 (Bohr^3)
GridVol     =      0.843541629638 (Bohr^3)
<UCell_Box> Info. of cutoff energy and num. of grids
lattice vectors (bohr)
A  =  7.558903954316,  0.000000000000,  0.000000000000
B  =  0.000000000000, 28.345889828684,  0.000000000000
C  =  0.000000000000,  0.000000000000, 28.345889828684
reciprocal lattice vectors (bohr^-1)
RA =  0.831229678953,  0.000000000000,  0.000000000000
RB =  0.000000000000,  0.221661247721,  0.000000000000
RC =  0.000000000000,  0.000000000000,  0.221661247721
Required cutoff energy (Ryd) for 3D-grids = 11.0248
    Used cutoff energy (Ryd) for 3D-grids = 11.0551, 11.0551, 11.0551
Num. of grids of a-, b-, and c-axes =  8, 30, 30
Grid_Origin  0.000000000000 -13.700513417197 -13.700513417197
Cell_Volume =   6073.499733393734 (Bohr^3)
GridVol     =      0.843541629638 (Bohr^3)
Cell vectors (bohr) of the grid cell (gtv)
  gtv_a =  0.944862994289,  0.000000000000,  0.000000000000
  gtv_b =  0.000000000000,  0.944862994289,  0.000000000000
  gtv_c =  0.000000000000,  0.000000000000,  0.944862994289
  |gtv_a| =  0.944862994289
  |gtv_b| =  0.944862994289
  |gtv_c| =  0.944862994289
Num. of grids overlapping with atom    1 = 1056
Num. of grids overlapping with atom    2 = 1056
Num. of grids overlapping with atom    3 = 1056
Num. of grids overlapping with atom    4 = 1056
Num. of grids overlapping with atom    5 = 1056
Num. of grids overlapping with atom    6 = 1056
Num. of grids overlapping with atom    7 = 1056
Num. of grids overlapping with atom    8 = 1056

*******************************************************
             SCF calculation at MD = 1                
*******************************************************

<MD= 1>  Calculation of the overlap matrix
<MD= 1>  Calculation of the nonlocal matrix
<MD= 1>  Calculation of the VNA projector matrix

******************* MD= 1  SCF= 1 *******************
<Cluster>  Solving the eigenvalue problem...
    1    H  MulP   0.5000  0.5000 sum   1.0000
    2    H  MulP   0.5000  0.5000 sum   1.0000
    3    H  MulP   0.5000  0.5000 sum   1.0000
    4    H  MulP   0.5000  0.5000 sum   1.0000
    5    H  MulP   0.5000  0.5000 sum   1.0000
    6    H  MulP   0.5000  0.5000 sum   1.0000
    7    H  MulP   0.5000  0.5000 sum   1.0000
    8    H  MulP   0.5000  0.5000 sum   1.0000
 Sum of MulP: up   =     4.00000 down          =     4.00000
              total=     8.00000 ideal(neutral)=     8.00000
<DFT>  Total Spin Moment (muB) =  0.000000000000
<DFT>  Mixing_weight= 0.300000000000
<DFT>  Uele   =   -6.479330157788  dUele     =   1.000000000000
<DFT>  NormRD =    1.000000000000  Criterion =   0.000000036749

******************* MD= 1  SCF= 2 *******************
<Poisson>  Poisson's equation using FFT...
<Set_Hamiltonian>  Hamiltonian matrix for VNA+dVH+Vxc...
<Cluster>  Solving the eigenvalue problem...
    1    H  MulP   0.5000  0.5000 sum   1.0000
    2    H  MulP   0.5000  0.5000 sum   1.0000
    3    H  MulP   0.5000  0.5000 sum   1.0000
    4    H  MulP   0.5000  0.5000 sum   1.0000
    5    H  MulP   0.5000  0.5000 sum   1.0000
    6    H  MulP   0.5000  0.5000 sum   1.0000
    7    H  MulP   0.5000  0.5000 sum   1.0000
    8    H  MulP   0.5000  0.5000 sum   1.0000
 Sum of MulP: up   =     4.00000 down          =     4.00000
              total=     8.00000 ideal(neutral)=     8.00000
<DFT>  Total Spin Moment (muB) =  0.000000000000
<DFT>  Mixing_weight= 0.324079284900
<DFT>  Uele   =   -6.526409361330  dUele     =   0.047079203542
<DFT>  NormRD =    0.272581361647  Criterion =   0.000000036749

******************* MD= 1  SCF= 3 *******************
<Poisson>  Poisson's equation using FFT...
<Set_Hamiltonian>  Hamiltonian matrix for VNA+dVH+Vxc...
<Cluster>  Solving the eigenvalue problem...
    1    H  MulP   0.5000  0.5000 sum   1.0000
    2    H  MulP   0.5000  0.5000 sum   1.0000
    3    H  MulP   0.5000  0.5000 sum   1.0000
    4    H  MulP   0.5000  0.5000 sum   1.0000
    5    H  MulP   0.5000  0.5000 sum   1.0000
    6    H  MulP   0.5000  0.5000 sum   1.0000
    7    H  MulP   0.5000  0.5000 sum   1.0000
    8    H  MulP   0.5000  0.5000 sum   1.0000
 Sum of MulP: up   =     4.00000 down          =     4.00000
              total=     8.00000 ideal(neutral)=     8.00000
<DFT>  Total Spin Moment (muB) =  0.000000000000
<DFT>  Mixing_weight= 0.400000000000
<DFT>  Uele   =   -6.575754124876  dUele     =   0.049344763547
<DFT>  NormRD =    0.191328277158  Criterion =   0.000000036749

******************* MD= 1  SCF= 4 *******************
<Poisson>  Poisson's equation using FFT...
<Set_Hamiltonian>  Hamiltonian matrix for VNA+dVH+Vxc...
<Cluster>  Solving the eigenvalue problem...
    1    H  MulP   0.5000  0.5000 sum   1.0000
    2    H  MulP   0.5000  0.5000 sum   1.0000
    3    H  MulP   0.5000  0.5000 sum   1.0000
    4    H  MulP   0.5000  0.5000 sum   1.0000
    5    H  MulP   0.5000  0.5000 sum   1.0000
    6    H  MulP   0.5000  0.5000 sum   1.0000
    7    H  MulP   0.5000  0.5000 sum   1.0000
    8    H  MulP   0.5000  0.5000 sum   1.0000
 Sum of MulP: up   =     4.00000 down          =     4.00000
              total=     8.00000 ideal(neutral)=     8.00000
<DFT>  Total Spin Moment (muB) =  0.000000000000
<DFT>  Mixing_weight= 0.400000000000
<DFT>  Uele   =   -6.668261448578  dUele     =   0.092507323702
<DFT>  NormRD =    0.052917235317  Criterion =   0.000000036749

******************* MD= 1  SCF= 5 *******************
<Poisson>  Poisson's equation using FFT...
<Set_Hamiltonian>  Hamiltonian matrix for VNA+dVH+Vxc...
<Cluster>  Solving the eigenvalue problem...
    1    H  MulP   0.5000  0.5000 sum   1.0000
    2    H  MulP   0.5000  0.5000 sum   1.0000
    3    H  MulP   0.5000  0.5000 sum   1.0000
    4    H  MulP   0.5000  0.5000 sum   1.0000
    5    H  MulP   0.5000  0.5000 sum   1.0000
    6    H  MulP   0.5000  0.5000 sum   1.0000
    7    H  MulP   0.5000  0.5000 sum   1.0000
    8    H  MulP   0.5000  0.5000 sum   1.0000
 Sum of MulP: up   =     4.00000 down          =     4.00000
              total=     8.00000 ideal(neutral)=     8.00000
<DFT>  Total Spin Moment (muB) =  0.000000000000
<DFT>  Mixing_weight= 0.400000000000
<DFT>  Uele   =   -6.666653209160  dUele     =   0.001608239418
<DFT>  NormRD =    0.030955042566  Criterion =   0.000000036749

******************* MD= 1  SCF= 6 *******************
<Poisson>  Poisson's equation using FFT...
<Set_Hamiltonian>  Hamiltonian matrix for VNA+dVH+Vxc...
<Cluster>  Solving the eigenvalue problem...
    1    H  MulP   0.5000  0.5000 sum   1.0000
    2    H  MulP   0.5000  0.5000 sum   1.0000
    3    H  MulP   0.5000  0.5000 sum   1.0000
    4    H  MulP   0.5000  0.5000 sum   1.0000
    5    H  MulP   0.5000  0.5000 sum   1.0000
    6    H  MulP   0.5000  0.5000 sum   1.0000
    7    H  MulP   0.5000  0.5000 sum   1.0000
    8    H  MulP   0.5000  0.5000 sum   1.0000
 Sum of MulP: up   =     4.00000 down          =     4.00000
              total=     8.00000 ideal(neutral)=     8.00000
<DFT>  Total Spin Moment (muB) =  0.000000000000
<DFT>  Mixing_weight= 0.400000000000
<DFT>  Uele   =   -6.676611409702  dUele     =   0.009958200542
<DFT>  NormRD =    0.023755357252  Criterion =   0.000000036749

******************* MD= 1  SCF= 7 *******************
<Poisson>  Poisson's equation using FFT...
<Set_Hamiltonian>  Hamiltonian matrix for VNA+dVH+Vxc...
<Cluster>  Solving the eigenvalue problem...
    1    H  MulP   0.5000  0.5000 sum   1.0000
    2    H  MulP   0.5000  0.5000 sum   1.0000
    3    H  MulP   0.5000  0.5000 sum   1.0000
    4    H  MulP   0.5000  0.5000 sum   1.0000
    5    H  MulP   0.5000  0.5000 sum   1.0000
    6    H  MulP   0.5000  0.5000 sum   1.0000
    7    H  MulP   0.5000  0.5000 sum   1.0000
    8    H  MulP   0.5000  0.5000 sum   1.0000
 Sum of MulP: up   =     4.00000 down          =     4.00000
              total=     8.00000 ideal(neutral)=     8.00000
<DFT>  Total Spin Moment (muB) =  0.000000000000
<DFT>  Mixing_weight= 0.400000000000
<DFT>  Uele   =   -6.681764022307  dUele     =   0.005152612605
<DFT>  NormRD =    0.017055697910  Criterion =   0.000000036749

******************* MD= 1  SCF= 8 *******************
<Poisson>  Poisson's equation using FFT...
<Set_Hamiltonian>  Hamiltonian matrix for VNA+dVH+Vxc...
<Cluster>  Solving the eigenvalue problem...
    1    H  MulP   0.5000  0.5000 sum   1.0000
    2    H  MulP   0.5000  0.5000 sum   1.0000
    3    H  MulP   0.5000  0.5000 sum   1.0000
    4    H  MulP   0.5000  0.5000 sum   1.0000
    5    H  MulP   0.5000  0.5000 sum   1.0000
    6    H  MulP   0.5000  0.5000 sum   1.0000
    7    H  MulP   0.5000  0.5000 sum   1.0000
    8    H  MulP   0.5000  0.5000 sum   1.0000
 Sum of MulP: up   =     4.00000 down          =     4.00000
              total=     8.00000 ideal(neutral)=     8.00000
<DFT>  Total Spin Moment (muB) =  0.000000000000
<DFT>  Mixing_weight= 0.400000000000
<DFT>  Uele   =   -6.687452487469  dUele     =   0.005688465162
<DFT>  NormRD =    0.003518488975  Criterion =   0.000000036749

******************* MD= 1  SCF= 9 *******************
<Poisson>  Poisson's equation using FFT...
<Set_Hamiltonian>  Hamiltonian matrix for VNA+dVH+Vxc...
<Cluster>  Solving the eigenvalue problem...
    1    H  MulP   0.5000  0.5000 sum   1.0000
    2    H  MulP   0.5000  0.5000 sum   1.0000
    3    H  MulP   0.5000  0.5000 sum   1.0000
    4    H  MulP   0.5000  0.5000 sum   1.0000
    5    H  MulP   0.5000  0.5000 sum   1.0000
    6    H  MulP   0.5000  0.5000 sum   1.0000
    7    H  MulP   0.5000  0.5000 sum   1.0000
    8    H  MulP   0.5000  0.5000 sum   1.0000
 Sum of MulP: up   =     4.00000 down          =     4.00000
              total=     8.00000 ideal(neutral)=     8.00000
<DFT>  Total Spin Moment (muB) =  0.000000000000
<DFT>  Mixing_weight= 0.400000000000
<DFT>  Uele   =   -6.687166976485  dUele     =   0.000285510984
<DFT>  NormRD =    0.000160551195  Criterion =   0.000000036749

******************* MD= 1  SCF=10 *******************
<Poisson>  Poisson's equation using FFT...
<Set_Hamiltonian>  Hamiltonian matrix for VNA+dVH+Vxc...
<Cluster>  Solving the eigenvalue problem...
    1    H  MulP   0.5000  0.5000 sum   1.0000
    2    H  MulP   0.5000  0.5000 sum   1.0000
    3    H  MulP   0.5000  0.5000 sum   1.0000
    4    H  MulP   0.5000  0.5000 sum   1.0000
    5    H  MulP   0.5000  0.5000 sum   1.0000
    6    H  MulP   0.5000  0.5000 sum   1.0000
    7    H  MulP   0.5000  0.5000 sum   1.0000
    8    H  MulP   0.5000  0.5000 sum   1.0000
 Sum of MulP: up   =     4.00000 down          =     4.00000
              total=     8.00000 ideal(neutral)=     8.00000
<DFT>  Total Spin Moment (muB) =  0.000000000000
<DFT>  Mixing_weight= 0.400000000000
<DFT>  Uele   =   -6.687167144451  dUele     =   0.000000167967
<DFT>  NormRD =    0.000000978040  Criterion =   0.000000036749

******************* MD= 1  SCF=11 *******************
<Poisson>  Poisson's equation using FFT...
<Set_Hamiltonian>  Hamiltonian matrix for VNA+dVH+Vxc...
<Cluster>  Solving the eigenvalue problem...
    1    H  MulP   0.5000  0.5000 sum   1.0000
    2    H  MulP   0.5000  0.5000 sum   1.0000
    3    H  MulP   0.5000  0.5000 sum   1.0000
    4    H  MulP   0.5000  0.5000 sum   1.0000
    5    H  MulP   0.5000  0.5000 sum   1.0000
    6    H  MulP   0.5000  0.5000 sum   1.0000
    7    H  MulP   0.5000  0.5000 sum   1.0000
    8    H  MulP   0.5000  0.5000 sum   1.0000
 Sum of MulP: up   =     4.00000 down          =     4.00000
              total=     8.00000 ideal(neutral)=     8.00000
<DFT>  Total Spin Moment (muB) =  0.000000000000
<DFT>  Mixing_weight= 0.400000000000
<DFT>  Uele   =   -6.687167013388  dUele     =   0.000000131063
<DFT>  NormRD =    0.000001200749  Criterion =   0.000000036749

******************* MD= 1  SCF=12 *******************
<Poisson>  Poisson's equation using FFT...
<Set_Hamiltonian>  Hamiltonian matrix for VNA+dVH+Vxc...
<Cluster>  Solving the eigenvalue problem...
    1    H  MulP   0.5000  0.5000 sum   1.0000
    2    H  MulP   0.5000  0.5000 sum   1.0000
    3    H  MulP   0.5000  0.5000 sum   1.0000
    4    H  MulP   0.5000  0.5000 sum   1.0000
    5    H  MulP   0.5000  0.5000 sum   1.0000
    6    H  MulP   0.5000  0.5000 sum   1.0000
    7    H  MulP   0.5000  0.5000 sum   1.0000
    8    H  MulP   0.5000  0.5000 sum   1.0000
 Sum of MulP: up   =     4.00000 down          =     4.00000
              total=     8.00000 ideal(neutral)=     8.00000
<DFT>  Total Spin Moment (muB) =  0.000000000000
<DFT>  Mixing_weight= 0.400000000000
<DFT>  Uele   =   -6.687166943056  dUele     =   0.000000070332
<DFT>  NormRD =    0.000001516754  Criterion =   0.000000036749

******************* MD= 1  SCF=13 *******************
<Poisson>  Poisson's equation using FFT...
<Set_Hamiltonian>  Hamiltonian matrix for VNA+dVH+Vxc...
<Cluster>  Solving the eigenvalue problem...
    1    H  MulP   0.5000  0.5000 sum   1.0000
    2    H  MulP   0.5000  0.5000 sum   1.0000
    3    H  MulP   0.5000  0.5000 sum   1.0000
    4    H  MulP   0.5000  0.5000 sum   1.0000
    5    H  MulP   0.5000  0.5000 sum   1.0000
    6    H  MulP   0.5000  0.5000 sum   1.0000
    7    H  MulP   0.5000  0.5000 sum   1.0000
    8    H  MulP   0.5000  0.5000 sum   1.0000
 Sum of MulP: up   =     4.00000 down          =     4.00000
              total=     8.00000 ideal(neutral)=     8.00000
<DFT>  Total Spin Moment (muB) =  0.000000000000
<DFT>  Mixing_weight= 0.400000000000
<DFT>  Uele   =   -6.687166938590  dUele     =   0.000000004466
<DFT>  NormRD =    0.000000806371  Criterion =   0.000000036749
<MD= 1>  Force calculation
  Force calculation #1
  Force calculation #2
  Force calculation #3
  Force calculation #4
  Force calculation #5
<MD= 1>  Total Energy
  Force calculation #6
  Force calculation #7

*******************************************************
                  Dipole moment (Debye)                 
*******************************************************

 Absolute D        2.74214598

                      Dx                Dy                Dz
 Total              2.74214598       -0.00000003        0.00000002
 Core              67.24489518        0.00000000        0.00000000
 Electron         -64.50274920       -0.00000003        0.00000002
 Back ground       -0.00000000        0.00000000       -0.00000000

*******************************************************
                Total Energy (Hartree) at MD = 1        
*******************************************************

  Uele  =      -6.687166938590

  Ukin  =       6.476052991299
  UH0   =     -23.465223346186
  UH1   =       0.058502374857
  Una   =     -10.593614905952
  Unl   =       1.345174143671
  Uxc0  =      -1.488846148743
  Uxc1  =      -1.488846148743
  Ucore =      26.274375836207
  Uhub  =       0.000000000000
  Ucs   =       0.000000000000
  Uzs   =       0.000000000000
  Uzo   =       0.000000000000
  Uef   =       0.000000000000
  UvdW  =       0.000000000000
  Uch   =       0.000000000000
  Utot  =      -2.882425203591

  UpV   =       0.000000000000
  Enpy  =      -2.882425203591
  Note:

  Uele:   band energy
  Ukin:   kinetic energy
  UH0:    electric part of screened Coulomb energy
  UH1:    difference electron-electron Coulomb energy
  Una:    neutral atom potential energy
  Unl:    non-local potential energy
  Uxc0:   exchange-correlation energy for alpha spin
  Uxc1:   exchange-correlation energy for beta spin
  Ucore:  core-core Coulomb energy
  Uhub:   LDA+U energy
  Ucs:    constraint energy for spin orientation
  Uzs:    Zeeman term for spin magnetic moment
  Uzo:    Zeeman term for orbital magnetic moment
  Uef:    electric energy by electric field
  UvdW:   semi-empirical vdW energy 
  Uch:    penalty term to create a core hole
  UpV:    pressure times volume
  Enpy:   Enthalpy = Utot + UpV
  (see also PRB 72, 045121(2005) for the energy contributions)


*******************************************************
           Computational times (s) at MD = 1            
*******************************************************

  DFT in total      =    3.91871

  Set_OLP_Kin       =    0.31637
  Set_Nonlocal      =    0.28124
  Set_ProExpn_VNA   =    0.59693
  Set_Hamiltonian   =    0.02497
  Poisson           =    0.00315
  diagonalization   =    0.88137
  Mixing_DM         =    0.00237
  Force             =    0.08380
  Total_Energy      =    0.66573
  Set_Aden_Grid     =    0.00638
  Set_Orbitals_Grid =    0.00447
  Set_Density_Grid  =    0.01600
  RestartFileDFT    =    0.43312
  Mulliken_Charge   =    0.04375
  FFT(2D)_Density   =    0.00000

The SCF was achieved at MD=   1

*******************************************************
             MD or geometry opt. at MD = 1              
*******************************************************


outputting data on grids to files...


***********************************************************
***********************************************************
               Computational Time (second)                 
***********************************************************
***********************************************************

                               Min_ID   Min_Time       Max_ID   Max_Time
   Total Computational Time =     3        7.734          0        7.869
   readfile                 =     0        2.654          2        2.654
   truncation               =     0        0.067          3        0.067
   MD_pac                   =     0        0.142          3        0.200
   OutData                  =     3        0.867          0        0.902
   DFT                      =     3        3.877          0        3.919

*** In DFT ***

   Set_OLP_Kin              =     0        0.316          3        0.319
   Set_Nonlocal             =     3        0.279          2        0.281
   Set_ProExpn_VNA          =     0        0.597          1        0.598
   Set_Hamiltonian          =     0        0.025          1        0.025
   Poisson                  =     0        0.003          1        0.003
   Diagonalization          =     1        0.881          0        0.881
   Mixing_DM                =     0        0.002          2        0.002
   Force                    =     1        0.084          0        0.084
   Total_Energy             =     1        0.624          0        0.666
   Set_Aden_Grid            =     2        0.006          0        0.006
   Set_Orbitals_Grid        =     2        0.004          0        0.004
   Set_Density_Grid         =     1        0.016          3        0.016
   RestartFileDFT           =     3        0.391          0        0.433
   Mulliken_Charge          =     3        0.044          0        0.044
   FFT(2D)_Density          =     0        0.000          0        0.000
   Others                   =     0        0.559          2        0.601

The calculation was normally finished.
method=openmx
N = 8
R = 0.5
dir_output = /home/yerin/qdft/hchain/output/N8/openmx_R0.50

run_openmx Done: 0m 9s


The number of threads in each node for OpenMP parallelization is 1.


*******************************************************
*******************************************************
 Welcome to OpenMX   Ver. 3.9.9                           
 Copyright (C), 2002-2019, T. Ozaki                    
 OpenMX comes with ABSOLUTELY NO WARRANTY.             
 This is free software, and you are welcome to         
 redistribute it under the constitution of the GNU-GPL.
*******************************************************
*******************************************************



<Input_std>  Your input file was normally read.
<Input_std>  The system includes 1 species and 8 atoms.

*******************************************************
                     PAO and VPS                       
*******************************************************

<SetPara_DFT>  PAOs of species H were normally found.
<SetPara_DFT>  VPSs of species H were normally found.
               H_CA19.vps is j-dependent.
               In case of scf.SpinOrbit.Coupling=off,
               j-dependent pseudo potentials are averaged by j-degeneracy,
               which corresponds to a scalar relativistic treatment.

*******************************************************
     Fourier transform of PAO and projectors of VNL    
*******************************************************

<FT_PAO>          Fourier transform of pseudo atomic orbitals
<FT_NLP>          Fourier transform of non-local projectors
<FT_ProExpn_VNA>  Fourier transform of VNA separable projectors
<FT_VNA>          Fourier transform of VNA potentials
<FT_ProductPAO>   Fourier transform of product of PAOs

*******************************************************
  Allocation of atoms to processors at MD_iter=    1     
*******************************************************

 proc =   0  # of atoms=   2  estimated weight=         2.00000
 proc =   1  # of atoms=   2  estimated weight=         2.00000
 proc =   2  # of atoms=   2  estimated weight=         2.00000
 proc =   3  # of atoms=   2  estimated weight=         2.00000




*******************************************************
        Analysis of neighbors and setting of grids        
*******************************************************

TFNAN=     154   Average FNAN=  19.25000
TSNAN=       0   Average SNAN=   0.00000
<truncation> CpyCell= 1 ct_AN=   1 FNAN SNAN  18   0
<truncation> CpyCell= 1 ct_AN=   2 FNAN SNAN  19   0
<truncation> CpyCell= 1 ct_AN=   3 FNAN SNAN  20   0
<truncation> CpyCell= 1 ct_AN=   4 FNAN SNAN  20   0
<truncation> CpyCell= 1 ct_AN=   5 FNAN SNAN  20   0
<truncation> CpyCell= 1 ct_AN=   6 FNAN SNAN  20   0
<truncation> CpyCell= 1 ct_AN=   7 FNAN SNAN  19   0
<truncation> CpyCell= 1 ct_AN=   8 FNAN SNAN  18   0
TFNAN=     160   Average FNAN=  20.00000
TSNAN=       0   Average SNAN=   0.00000
<truncation> CpyCell= 2 ct_AN=   1 FNAN SNAN  20   0
<truncation> CpyCell= 2 ct_AN=   2 FNAN SNAN  20   0
<truncation> CpyCell= 2 ct_AN=   3 FNAN SNAN  20   0
<truncation> CpyCell= 2 ct_AN=   4 FNAN SNAN  20   0
<truncation> CpyCell= 2 ct_AN=   5 FNAN SNAN  20   0
<truncation> CpyCell= 2 ct_AN=   6 FNAN SNAN  20   0
<truncation> CpyCell= 2 ct_AN=   7 FNAN SNAN  20   0
<truncation> CpyCell= 2 ct_AN=   8 FNAN SNAN  20   0
TFNAN=     160   Average FNAN=  20.00000
TSNAN=       0   Average SNAN=   0.00000
<truncation> CpyCell= 3 ct_AN=   1 FNAN SNAN  20   0
<truncation> CpyCell= 3 ct_AN=   2 FNAN SNAN  20   0
<truncation> CpyCell= 3 ct_AN=   3 FNAN SNAN  20   0
<truncation> CpyCell= 3 ct_AN=   4 FNAN SNAN  20   0
<truncation> CpyCell= 3 ct_AN=   5 FNAN SNAN  20   0
<truncation> CpyCell= 3 ct_AN=   6 FNAN SNAN  20   0
<truncation> CpyCell= 3 ct_AN=   7 FNAN SNAN  20   0
<truncation> CpyCell= 3 ct_AN=   8 FNAN SNAN  20   0
TFNAN=     160   Average FNAN=  20.00000
TSNAN=       0   Average SNAN=   0.00000
<truncation> CpyCell= 3 ct_AN=   1 FNAN SNAN  20   0
<truncation> CpyCell= 3 ct_AN=   2 FNAN SNAN  20   0
<truncation> CpyCell= 3 ct_AN=   3 FNAN SNAN  20   0
<truncation> CpyCell= 3 ct_AN=   4 FNAN SNAN  20   0
<truncation> CpyCell= 3 ct_AN=   5 FNAN SNAN  20   0
<truncation> CpyCell= 3 ct_AN=   6 FNAN SNAN  20   0
<truncation> CpyCell= 3 ct_AN=   7 FNAN SNAN  20   0
<truncation> CpyCell= 3 ct_AN=   8 FNAN SNAN  20   0
<Check_System> The system is chain.
lattice vectors (bohr)
A  =  9.070684745179,  0.000000000000,  0.000000000000
B  =  0.000000000000, 28.345889828684,  0.000000000000
C  =  0.000000000000,  0.000000000000, 28.345889828684
reciprocal lattice vectors (bohr^-1)
RA =  0.692691399127,  0.000000000000,  0.000000000000
RB =  0.000000000000,  0.221661247721,  0.000000000000
RC =  0.000000000000,  0.000000000000,  0.221661247721
Grid_Origin -0.113383559315 -13.700513417197 -13.700513417197
Cell_Volume =   7288.199680072481 (Bohr^3)
GridVol     =      0.809799964452 (Bohr^3)
Grid_Origin -0.113383559315 -13.700513417197 -13.700513417197
Cell_Volume =   7288.199680072481 (Bohr^3)
GridVol     =      0.809799964452 (Bohr^3)
<UCell_Box> Info. of cutoff energy and num. of grids
lattice vectors (bohr)
A  =  9.070684745179,  0.000000000000,  0.000000000000
B  =  0.000000000000, 28.345889828684,  0.000000000000
C  =  0.000000000000,  0.000000000000, 28.345889828684
reciprocal lattice vectors (bohr^-1)
RA =  0.692691399127,  0.000000000000,  0.000000000000
RB =  0.000000000000,  0.221661247721,  0.000000000000
RC =  0.000000000000,  0.000000000000,  0.221661247721
Required cutoff energy (Ryd) for 3D-grids = 11.0248
    Used cutoff energy (Ryd) for 3D-grids = 11.9955, 11.0551, 11.0551
Num. of grids of a-, b-, and c-axes = 10, 30, 30
Grid_Origin -0.113383559315 -13.700513417197 -13.700513417197
Cell_Volume =   7288.199680072481 (Bohr^3)
GridVol     =      0.809799964452 (Bohr^3)
Cell vectors (bohr) of the grid cell (gtv)
  gtv_a =  0.907068474518,  0.000000000000,  0.000000000000
  gtv_b =  0.000000000000,  0.944862994289,  0.000000000000
  gtv_c =  0.000000000000,  0.000000000000,  0.944862994289
  |gtv_a| =  0.907068474518
  |gtv_b| =  0.944862994289
  |gtv_c| =  0.944862994289
Num. of grids overlapping with atom    1 = 1112
Num. of grids overlapping with atom    2 = 1112
Num. of grids overlapping with atom    3 = 1112
Num. of grids overlapping with atom    4 = 1112
Num. of grids overlapping with atom    5 = 1112
Num. of grids overlapping with atom    6 = 1112
Num. of grids overlapping with atom    7 = 1112
Num. of grids overlapping with atom    8 = 1112

*******************************************************
             SCF calculation at MD = 1                
*******************************************************

<MD= 1>  Calculation of the overlap matrix
<MD= 1>  Calculation of the nonlocal matrix
<MD= 1>  Calculation of the VNA projector matrix

******************* MD= 1  SCF= 1 *******************
<Cluster>  Solving the eigenvalue problem...
    1    H  MulP   0.3299  0.3299 sum   0.6598
    2    H  MulP   0.6701  0.6701 sum   1.3402
    3    H  MulP   0.6701  0.6701 sum   1.3402
    4    H  MulP   0.3299  0.3299 sum   0.6598
    5    H  MulP   0.3299  0.3299 sum   0.6598
    6    H  MulP   0.6701  0.6701 sum   1.3402
    7    H  MulP   0.6701  0.6701 sum   1.3402
    8    H  MulP   0.3299  0.3299 sum   0.6598
 Sum of MulP: up   =     4.00000 down          =     4.00000
              total=     8.00000 ideal(neutral)=     8.00000
<DFT>  Total Spin Moment (muB) =  0.000000000000
<DFT>  Mixing_weight= 0.300000000000
<DFT>  Uele   =   -5.213411034418  dUele     =   1.000000000000
<DFT>  NormRD =    1.000000000000  Criterion =   0.000000036749

******************* MD= 1  SCF= 2 *******************
<Poisson>  Poisson's equation using FFT...
<Set_Hamiltonian>  Hamiltonian matrix for VNA+dVH+Vxc...
<Cluster>  Solving the eigenvalue problem...
    1    H  MulP   0.3273  0.3273 sum   0.6546
    2    H  MulP   0.6727  0.6727 sum   1.3454
    3    H  MulP   0.6727  0.6727 sum   1.3454
    4    H  MulP   0.3273  0.3273 sum   0.6546
    5    H  MulP   0.3273  0.3273 sum   0.6546
    6    H  MulP   0.6727  0.6727 sum   1.3454
    7    H  MulP   0.6727  0.6727 sum   1.3454
    8    H  MulP   0.3273  0.3273 sum   0.6546
 Sum of MulP: up   =     4.00000 down          =     4.00000
              total=     8.00000 ideal(neutral)=     8.00000
<DFT>  Total Spin Moment (muB) =  0.000000000000
<DFT>  Mixing_weight= 0.308456124124
<DFT>  Uele   =   -5.267762828963  dUele     =   0.054351794544
<DFT>  NormRD =    0.165572793443  Criterion =   0.000000036749

******************* MD= 1  SCF= 3 *******************
<Poisson>  Poisson's equation using FFT...
<Set_Hamiltonian>  Hamiltonian matrix for VNA+dVH+Vxc...
<Cluster>  Solving the eigenvalue problem...
    1    H  MulP   0.3249  0.3249 sum   0.6499
    2    H  MulP   0.6751  0.6751 sum   1.3501
    3    H  MulP   0.6751  0.6751 sum   1.3501
    4    H  MulP   0.3249  0.3249 sum   0.6499
    5    H  MulP   0.3249  0.3249 sum   0.6499
    6    H  MulP   0.6751  0.6751 sum   1.3501
    7    H  MulP   0.6751  0.6751 sum   1.3501
    8    H  MulP   0.3249  0.3249 sum   0.6499
 Sum of MulP: up   =     4.00000 down          =     4.00000
              total=     8.00000 ideal(neutral)=     8.00000
<DFT>  Total Spin Moment (muB) =  0.000000000000
<DFT>  Mixing_weight= 0.400000000000
<DFT>  Uele   =   -5.318868965283  dUele     =   0.051106136321
<DFT>  NormRD =    0.116382885587  Criterion =   0.000000036749

******************* MD= 1  SCF= 4 *******************
<Poisson>  Poisson's equation using FFT...
<Set_Hamiltonian>  Hamiltonian matrix for VNA+dVH+Vxc...
<Cluster>  Solving the eigenvalue problem...
    1    H  MulP   0.3214  0.3214 sum   0.6428
    2    H  MulP   0.6786  0.6786 sum   1.3572
    3    H  MulP   0.6786  0.6786 sum   1.3572
    4    H  MulP   0.3214  0.3214 sum   0.6428
    5    H  MulP   0.3214  0.3214 sum   0.6428
    6    H  MulP   0.6786  0.6786 sum   1.3572
    7    H  MulP   0.6786  0.6786 sum   1.3572
    8    H  MulP   0.3214  0.3214 sum   0.6428
 Sum of MulP: up   =     4.00000 down          =     4.00000
              total=     8.00000 ideal(neutral)=     8.00000
<DFT>  Total Spin Moment (muB) =  0.000000000000
<DFT>  Mixing_weight= 0.188547936746
<DFT>  Uele   =   -5.400275156155  dUele     =   0.081406190872
<DFT>  NormRD =    0.123249223630  Criterion =   0.000000036749

******************* MD= 1  SCF= 5 *******************
<Poisson>  Poisson's equation using FFT...
<Set_Hamiltonian>  Hamiltonian matrix for VNA+dVH+Vxc...
<Cluster>  Solving the eigenvalue problem...
    1    H  MulP   0.3214  0.3214 sum   0.6428
    2    H  MulP   0.6786  0.6786 sum   1.3572
    3    H  MulP   0.6786  0.6786 sum   1.3572
    4    H  MulP   0.3214  0.3214 sum   0.6428
    5    H  MulP   0.3214  0.3214 sum   0.6428
    6    H  MulP   0.6786  0.6786 sum   1.3572
    7    H  MulP   0.6786  0.6786 sum   1.3572
    8    H  MulP   0.3214  0.3214 sum   0.6428
 Sum of MulP: up   =     4.00000 down          =     4.00000
              total=     8.00000 ideal(neutral)=     8.00000
<DFT>  Total Spin Moment (muB) =  0.000000000000
<DFT>  Mixing_weight= 0.400000000000
<DFT>  Uele   =   -5.397616035119  dUele     =   0.002659121036
<DFT>  NormRD =    0.095682359254  Criterion =   0.000000036749

******************* MD= 1  SCF= 6 *******************
<Poisson>  Poisson's equation using FFT...
<Set_Hamiltonian>  Hamiltonian matrix for VNA+dVH+Vxc...
<Cluster>  Solving the eigenvalue problem...
    1    H  MulP   0.3214  0.3214 sum   0.6428
    2    H  MulP   0.6786  0.6786 sum   1.3572
    3    H  MulP   0.6786  0.6786 sum   1.3572
    4    H  MulP   0.3214  0.3214 sum   0.6428
    5    H  MulP   0.3214  0.3214 sum   0.6428
    6    H  MulP   0.6786  0.6786 sum   1.3572
    7    H  MulP   0.6786  0.6786 sum   1.3572
    8    H  MulP   0.3214  0.3214 sum   0.6428
 Sum of MulP: up   =     4.00000 down          =     4.00000
              total=     8.00000 ideal(neutral)=     8.00000
<DFT>  Total Spin Moment (muB) =  0.000000000000
<DFT>  Mixing_weight= 0.400000000000
<DFT>  Uele   =   -5.401290211618  dUele     =   0.003674176499
<DFT>  NormRD =    0.063552189136  Criterion =   0.000000036749

******************* MD= 1  SCF= 7 *******************
<Poisson>  Poisson's equation using FFT...
<Set_Hamiltonian>  Hamiltonian matrix for VNA+dVH+Vxc...
<Cluster>  Solving the eigenvalue problem...
    1    H  MulP   0.3214  0.3214 sum   0.6427
    2    H  MulP   0.6786  0.6786 sum   1.3573
    3    H  MulP   0.6786  0.6786 sum   1.3573
    4    H  MulP   0.3214  0.3214 sum   0.6427
    5    H  MulP   0.3214  0.3214 sum   0.6427
    6    H  MulP   0.6786  0.6786 sum   1.3573
    7    H  MulP   0.6786  0.6786 sum   1.3573
    8    H  MulP   0.3214  0.3214 sum   0.6427
 Sum of MulP: up   =     4.00000 down          =     4.00000
              total=     8.00000 ideal(neutral)=     8.00000
<DFT>  Total Spin Moment (muB) =  0.000000000000
<DFT>  Mixing_weight= 0.400000000000
<DFT>  Uele   =   -5.403154640322  dUele     =   0.001864428704
<DFT>  NormRD =    0.041411417686  Criterion =   0.000000036749

******************* MD= 1  SCF= 8 *******************
<Poisson>  Poisson's equation using FFT...
<Set_Hamiltonian>  Hamiltonian matrix for VNA+dVH+Vxc...
<Cluster>  Solving the eigenvalue problem...
    1    H  MulP   0.3213  0.3213 sum   0.6427
    2    H  MulP   0.6787  0.6787 sum   1.3573
    3    H  MulP   0.6787  0.6787 sum   1.3573
    4    H  MulP   0.3213  0.3213 sum   0.6427
    5    H  MulP   0.3213  0.3213 sum   0.6427
    6    H  MulP   0.6787  0.6787 sum   1.3573
    7    H  MulP   0.6787  0.6787 sum   1.3573
    8    H  MulP   0.3213  0.3213 sum   0.6427
 Sum of MulP: up   =     4.00000 down          =     4.00000
              total=     8.00000 ideal(neutral)=     8.00000
<DFT>  Total Spin Moment (muB) =  0.000000000000
<DFT>  Mixing_weight= 0.400000000000
<DFT>  Uele   =   -5.405247799933  dUele     =   0.002093159611
<DFT>  NormRD =    0.002026100009  Criterion =   0.000000036749

******************* MD= 1  SCF= 9 *******************
<Poisson>  Poisson's equation using FFT...
<Set_Hamiltonian>  Hamiltonian matrix for VNA+dVH+Vxc...
<Cluster>  Solving the eigenvalue problem...
    1    H  MulP   0.3213  0.3213 sum   0.6427
    2    H  MulP   0.6787  0.6787 sum   1.3573
    3    H  MulP   0.6787  0.6787 sum   1.3573
    4    H  MulP   0.3213  0.3213 sum   0.6427
    5    H  MulP   0.3213  0.3213 sum   0.6427
    6    H  MulP   0.6787  0.6787 sum   1.3573
    7    H  MulP   0.6787  0.6787 sum   1.3573
    8    H  MulP   0.3213  0.3213 sum   0.6427
 Sum of MulP: up   =     4.00000 down          =     4.00000
              total=     8.00000 ideal(neutral)=     8.00000
<DFT>  Total Spin Moment (muB) =  0.000000000000
<DFT>  Mixing_weight= 0.400000000000
<DFT>  Uele   =   -5.404976225931  dUele     =   0.000271574002
<DFT>  NormRD =    0.000158926362  Criterion =   0.000000036749

******************* MD= 1  SCF=10 *******************
<Poisson>  Poisson's equation using FFT...
<Set_Hamiltonian>  Hamiltonian matrix for VNA+dVH+Vxc...
<Cluster>  Solving the eigenvalue problem...
    1    H  MulP   0.3213  0.3213 sum   0.6427
    2    H  MulP   0.6787  0.6787 sum   1.3573
    3    H  MulP   0.6787  0.6787 sum   1.3573
    4    H  MulP   0.3213  0.3213 sum   0.6427
    5    H  MulP   0.3213  0.3213 sum   0.6427
    6    H  MulP   0.6787  0.6787 sum   1.3573
    7    H  MulP   0.6787  0.6787 sum   1.3573
    8    H  MulP   0.3213  0.3213 sum   0.6427
 Sum of MulP: up   =     4.00000 down          =     4.00000
              total=     8.00000 ideal(neutral)=     8.00000
<DFT>  Total Spin Moment (muB) =  0.000000000000
<DFT>  Mixing_weight= 0.400000000000
<DFT>  Uele   =   -5.404989720385  dUele     =   0.000013494454
<DFT>  NormRD =    0.000014969202  Criterion =   0.000000036749

******************* MD= 1  SCF=11 *******************
<Poisson>  Poisson's equation using FFT...
<Set_Hamiltonian>  Hamiltonian matrix for VNA+dVH+Vxc...
<Cluster>  Solving the eigenvalue problem...
    1    H  MulP   0.3213  0.3213 sum   0.6427
    2    H  MulP   0.6787  0.6787 sum   1.3573
    3    H  MulP   0.6787  0.6787 sum   1.3573
    4    H  MulP   0.3213  0.3213 sum   0.6427
    5    H  MulP   0.3213  0.3213 sum   0.6427
    6    H  MulP   0.6787  0.6787 sum   1.3573
    7    H  MulP   0.6787  0.6787 sum   1.3573
    8    H  MulP   0.3213  0.3213 sum   0.6427
 Sum of MulP: up   =     4.00000 down          =     4.00000
              total=     8.00000 ideal(neutral)=     8.00000
<DFT>  Total Spin Moment (muB) =  0.000000000000
<DFT>  Mixing_weight= 0.400000000000
<DFT>  Uele   =   -5.404989784727  dUele     =   0.000000064342
<DFT>  NormRD =    0.000001412948  Criterion =   0.000000036749

******************* MD= 1  SCF=12 *******************
<Poisson>  Poisson's equation using FFT...
<Set_Hamiltonian>  Hamiltonian matrix for VNA+dVH+Vxc...
<Cluster>  Solving the eigenvalue problem...
    1    H  MulP   0.3213  0.3213 sum   0.6427
    2    H  MulP   0.6787  0.6787 sum   1.3573
    3    H  MulP   0.6787  0.6787 sum   1.3573
    4    H  MulP   0.3213  0.3213 sum   0.6427
    5    H  MulP   0.3213  0.3213 sum   0.6427
    6    H  MulP   0.6787  0.6787 sum   1.3573
    7    H  MulP   0.6787  0.6787 sum   1.3573
    8    H  MulP   0.3213  0.3213 sum   0.6427
 Sum of MulP: up   =     4.00000 down          =     4.00000
              total=     8.00000 ideal(neutral)=     8.00000
<DFT>  Total Spin Moment (muB) =  0.000000000000
<DFT>  Mixing_weight= 0.400000000000
<DFT>  Uele   =   -5.404989739741  dUele     =   0.000000044987
<DFT>  NormRD =    0.000000561288  Criterion =   0.000000036749

******************* MD= 1  SCF=13 *******************
<Poisson>  Poisson's equation using FFT...
<Set_Hamiltonian>  Hamiltonian matrix for VNA+dVH+Vxc...
<Cluster>  Solving the eigenvalue problem...
    1    H  MulP   0.3213  0.3213 sum   0.6427
    2    H  MulP   0.6787  0.6787 sum   1.3573
    3    H  MulP   0.6787  0.6787 sum   1.3573
    4    H  MulP   0.3213  0.3213 sum   0.6427
    5    H  MulP   0.3213  0.3213 sum   0.6427
    6    H  MulP   0.6787  0.6787 sum   1.3573
    7    H  MulP   0.6787  0.6787 sum   1.3573
    8    H  MulP   0.3213  0.3213 sum   0.6427
 Sum of MulP: up   =     4.00000 down          =     4.00000
              total=     8.00000 ideal(neutral)=     8.00000
<DFT>  Total Spin Moment (muB) =  0.000000000000
<DFT>  Mixing_weight= 0.400000000000
<DFT>  Uele   =   -5.404989731381  dUele     =   0.000000008360
<DFT>  NormRD =    0.000002423452  Criterion =   0.000000036749
<MD= 1>  Force calculation
  Force calculation #1
  Force calculation #2
  Force calculation #3
  Force calculation #4
  Force calculation #5
<MD= 1>  Total Energy
  Force calculation #6
  Force calculation #7

*******************************************************
                  Dipole moment (Debye)                 
*******************************************************

 Absolute D        2.56784294

                      Dx                Dy                Dz
 Total              2.56784294        0.00000000        0.00000000
 Core              80.69387421        0.00000000        0.00000000
 Electron         -78.12603127        0.00000000        0.00000000
 Back ground       -0.00000000        0.00000000       -0.00000000

*******************************************************
                Total Energy (Hartree) at MD = 1        
*******************************************************

  Uele  =      -5.404989731381

  Ukin  =       5.313006615047
  UH0   =     -19.611547727093
  UH1   =       0.024676650236
  Una   =      -8.089059904144
  Unl   =       1.006080304042
  Uxc0  =      -1.386314577524
  Uxc1  =      -1.386314577524
  Ucore =      20.665911507243
  Uhub  =       0.000000000000
  Ucs   =       0.000000000000
  Uzs   =       0.000000000000
  Uzo   =       0.000000000000
  Uef   =       0.000000000000
  UvdW  =       0.000000000000
  Uch   =       0.000000000000
  Utot  =      -3.463561709714

  UpV   =       0.000000000000
  Enpy  =      -3.463561709714
  Note:

  Uele:   band energy
  Ukin:   kinetic energy
  UH0:    electric part of screened Coulomb energy
  UH1:    difference electron-electron Coulomb energy
  Una:    neutral atom potential energy
  Unl:    non-local potential energy
  Uxc0:   exchange-correlation energy for alpha spin
  Uxc1:   exchange-correlation energy for beta spin
  Ucore:  core-core Coulomb energy
  Uhub:   LDA+U energy
  Ucs:    constraint energy for spin orientation
  Uzs:    Zeeman term for spin magnetic moment
  Uzo:    Zeeman term for orbital magnetic moment
  Uef:    electric energy by electric field
  UvdW:   semi-empirical vdW energy 
  Uch:    penalty term to create a core hole
  UpV:    pressure times volume
  Enpy:   Enthalpy = Utot + UpV
  (see also PRB 72, 045121(2005) for the energy contributions)


*******************************************************
           Computational times (s) at MD = 1            
*******************************************************

  DFT in total      =    3.57122

  Set_OLP_Kin       =    0.27174
  Set_Nonlocal      =    0.23641
  Set_ProExpn_VNA   =    0.51283
  Set_Hamiltonian   =    0.02190
  Poisson           =    0.00362
  diagonalization   =    0.69578
  Mixing_DM         =    0.00204
  Force             =    0.06212
  Total_Energy      =    0.87323
  Set_Aden_Grid     =    0.00835
  Set_Orbitals_Grid =    0.00394
  Set_Density_Grid  =    0.01333
  RestartFileDFT    =    0.35349
  Mulliken_Charge   =    0.04864
  FFT(2D)_Density   =    0.00000

The SCF was achieved at MD=   1

*******************************************************
             MD or geometry opt. at MD = 1              
*******************************************************


outputting data on grids to files...


***********************************************************
***********************************************************
               Computational Time (second)                 
***********************************************************
***********************************************************

                               Min_ID   Min_Time       Max_ID   Max_Time
   Total Computational Time =     2        7.159          0        7.311
   readfile                 =     3        2.418          2        2.418
   truncation               =     0        0.087          1        0.087
   MD_pac                   =     0        0.125          3        0.208
   OutData                  =     1        0.818          0        0.911
   DFT                      =     1        3.234          0        3.571

*** In DFT ***

   Set_OLP_Kin              =     0        0.272          3        0.273
   Set_Nonlocal             =     3        0.235          0        0.236
   Set_ProExpn_VNA          =     0        0.513          1        0.516
   Set_Hamiltonian          =     1        0.022          0        0.022
   Poisson                  =     0        0.004          1        0.004
   Diagonalization          =     0        0.696          3        0.696
   Mixing_DM                =     1        0.002          3        0.002
   Force                    =     0        0.062          2        0.062
   Total_Energy             =     3        0.537          0        0.873
   Set_Aden_Grid            =     2        0.006          3        0.009
   Set_Orbitals_Grid        =     1        0.004          3        0.004
   Set_Density_Grid         =     0        0.013          2        0.013
   RestartFileDFT           =     3        0.303          0        0.353
   Mulliken_Charge          =     3        0.049          0        0.049
   FFT(2D)_Density          =     0        0.000          0        0.000
   Others                   =     0        0.464          2        0.514

The calculation was normally finished.
method=openmx
N = 8
R = 0.6
dir_output = /home/yerin/qdft/hchain/output/N8/openmx_R0.60

run_openmx Done: 0m 8s


The number of threads in each node for OpenMP parallelization is 1.


*******************************************************
*******************************************************
 Welcome to OpenMX   Ver. 3.9.9                           
 Copyright (C), 2002-2019, T. Ozaki                    
 OpenMX comes with ABSOLUTELY NO WARRANTY.             
 This is free software, and you are welcome to         
 redistribute it under the constitution of the GNU-GPL.
*******************************************************
*******************************************************



<Input_std>  Your input file was normally read.
<Input_std>  The system includes 1 species and 8 atoms.

*******************************************************
                     PAO and VPS                       
*******************************************************

<SetPara_DFT>  PAOs of species H were normally found.
<SetPara_DFT>  VPSs of species H were normally found.
               H_CA19.vps is j-dependent.
               In case of scf.SpinOrbit.Coupling=off,
               j-dependent pseudo potentials are averaged by j-degeneracy,
               which corresponds to a scalar relativistic treatment.

*******************************************************
     Fourier transform of PAO and projectors of VNL    
*******************************************************

<FT_PAO>          Fourier transform of pseudo atomic orbitals
<FT_NLP>          Fourier transform of non-local projectors
<FT_ProExpn_VNA>  Fourier transform of VNA separable projectors
<FT_VNA>          Fourier transform of VNA potentials
<FT_ProductPAO>   Fourier transform of product of PAOs

*******************************************************
  Allocation of atoms to processors at MD_iter=    1     
*******************************************************

 proc =   0  # of atoms=   2  estimated weight=         2.00000
 proc =   1  # of atoms=   2  estimated weight=         2.00000
 proc =   2  # of atoms=   2  estimated weight=         2.00000
 proc =   3  # of atoms=   2  estimated weight=         2.00000




*******************************************************
        Analysis of neighbors and setting of grids        
*******************************************************

TFNAN=     142   Average FNAN=  17.75000
TSNAN=       0   Average SNAN=   0.00000
<truncation> CpyCell= 1 ct_AN=   1 FNAN SNAN  17   0
<truncation> CpyCell= 1 ct_AN=   2 FNAN SNAN  18   0
<truncation> CpyCell= 1 ct_AN=   3 FNAN SNAN  18   0
<truncation> CpyCell= 1 ct_AN=   4 FNAN SNAN  18   0
<truncation> CpyCell= 1 ct_AN=   5 FNAN SNAN  18   0
<truncation> CpyCell= 1 ct_AN=   6 FNAN SNAN  18   0
<truncation> CpyCell= 1 ct_AN=   7 FNAN SNAN  18   0
<truncation> CpyCell= 1 ct_AN=   8 FNAN SNAN  17   0
TFNAN=     144   Average FNAN=  18.00000
TSNAN=       0   Average SNAN=   0.00000
<truncation> CpyCell= 2 ct_AN=   1 FNAN SNAN  18   0
<truncation> CpyCell= 2 ct_AN=   2 FNAN SNAN  18   0
<truncation> CpyCell= 2 ct_AN=   3 FNAN SNAN  18   0
<truncation> CpyCell= 2 ct_AN=   4 FNAN SNAN  18   0
<truncation> CpyCell= 2 ct_AN=   5 FNAN SNAN  18   0
<truncation> CpyCell= 2 ct_AN=   6 FNAN SNAN  18   0
<truncation> CpyCell= 2 ct_AN=   7 FNAN SNAN  18   0
<truncation> CpyCell= 2 ct_AN=   8 FNAN SNAN  18   0
TFNAN=     144   Average FNAN=  18.00000
TSNAN=       0   Average SNAN=   0.00000
<truncation> CpyCell= 3 ct_AN=   1 FNAN SNAN  18   0
<truncation> CpyCell= 3 ct_AN=   2 FNAN SNAN  18   0
<truncation> CpyCell= 3 ct_AN=   3 FNAN SNAN  18   0
<truncation> CpyCell= 3 ct_AN=   4 FNAN SNAN  18   0
<truncation> CpyCell= 3 ct_AN=   5 FNAN SNAN  18   0
<truncation> CpyCell= 3 ct_AN=   6 FNAN SNAN  18   0
<truncation> CpyCell= 3 ct_AN=   7 FNAN SNAN  18   0
<truncation> CpyCell= 3 ct_AN=   8 FNAN SNAN  18   0
TFNAN=     144   Average FNAN=  18.00000
TSNAN=       0   Average SNAN=   0.00000
<truncation> CpyCell= 3 ct_AN=   1 FNAN SNAN  18   0
<truncation> CpyCell= 3 ct_AN=   2 FNAN SNAN  18   0
<truncation> CpyCell= 3 ct_AN=   3 FNAN SNAN  18   0
<truncation> CpyCell= 3 ct_AN=   4 FNAN SNAN  18   0
<truncation> CpyCell= 3 ct_AN=   5 FNAN SNAN  18   0
<truncation> CpyCell= 3 ct_AN=   6 FNAN SNAN  18   0
<truncation> CpyCell= 3 ct_AN=   7 FNAN SNAN  18   0
<truncation> CpyCell= 3 ct_AN=   8 FNAN SNAN  18   0
<Check_System> The system is chain.
lattice vectors (bohr)
A  = 10.582465536042,  0.000000000000,  0.000000000000
B  =  0.000000000000, 28.345889828684,  0.000000000000
C  =  0.000000000000,  0.000000000000, 28.345889828684
reciprocal lattice vectors (bohr^-1)
RA =  0.593735484966,  0.000000000000,  0.000000000000
RB =  0.000000000000,  0.221661247721,  0.000000000000
RC =  0.000000000000,  0.000000000000,  0.221661247721
Grid_Origin -0.220468032001 -13.700513417197 -13.700513417197
Cell_Volume =   8502.899626751228 (Bohr^3)
GridVol     =      0.787305520995 (Bohr^3)
Grid_Origin -0.220468032001 -13.700513417197 -13.700513417197
Cell_Volume =   8502.899626751228 (Bohr^3)
GridVol     =      0.787305520995 (Bohr^3)
<UCell_Box> Info. of cutoff energy and num. of grids
lattice vectors (bohr)
A  = 10.582465536042,  0.000000000000,  0.000000000000
B  =  0.000000000000, 28.345889828684,  0.000000000000
C  =  0.000000000000,  0.000000000000, 28.345889828684
reciprocal lattice vectors (bohr^-1)
RA =  0.593735484966,  0.000000000000,  0.000000000000
RB =  0.000000000000,  0.221661247721,  0.000000000000
RC =  0.000000000000,  0.000000000000,  0.221661247721
Required cutoff energy (Ryd) for 3D-grids = 11.0248
    Used cutoff energy (Ryd) for 3D-grids = 12.6908, 11.0551, 11.0551
Num. of grids of a-, b-, and c-axes = 12, 30, 30
Grid_Origin -0.220468032001 -13.700513417197 -13.700513417197
Cell_Volume =   8502.899626751228 (Bohr^3)
GridVol     =      0.787305520995 (Bohr^3)
Cell vectors (bohr) of the grid cell (gtv)
  gtv_a =  0.881872128003,  0.000000000000,  0.000000000000
  gtv_b =  0.000000000000,  0.944862994289,  0.000000000000
  gtv_c =  0.000000000000,  0.000000000000,  0.944862994289
  |gtv_a| =  0.881872128003
  |gtv_b| =  0.944862994289
  |gtv_c| =  0.944862994289
Num. of grids overlapping with atom    1 = 1140
Num. of grids overlapping with atom    2 = 1140
Num. of grids overlapping with atom    3 = 1140
Num. of grids overlapping with atom    4 = 1140
Num. of grids overlapping with atom    5 = 1140
Num. of grids overlapping with atom    6 = 1140
Num. of grids overlapping with atom    7 = 1140
Num. of grids overlapping with atom    8 = 1140

*******************************************************
             SCF calculation at MD = 1                
*******************************************************

<MD= 1>  Calculation of the overlap matrix
<MD= 1>  Calculation of the nonlocal matrix
<MD= 1>  Calculation of the VNA projector matrix

******************* MD= 1  SCF= 1 *******************
<Cluster>  Solving the eigenvalue problem...
    1    H  MulP   0.5000  0.5000 sum   1.0000
    2    H  MulP   0.5000  0.5000 sum   1.0000
    3    H  MulP   0.5000  0.5000 sum   1.0000
    4    H  MulP   0.5000  0.5000 sum   1.0000
    5    H  MulP   0.5000  0.5000 sum   1.0000
    6    H  MulP   0.5000  0.5000 sum   1.0000
    7    H  MulP   0.5000  0.5000 sum   1.0000
    8    H  MulP   0.5000  0.5000 sum   1.0000
 Sum of MulP: up   =     4.00000 down          =     4.00000
              total=     8.00000 ideal(neutral)=     8.00000
<DFT>  Total Spin Moment (muB) =  0.000000000000
<DFT>  Mixing_weight= 0.300000000000
<DFT>  Uele   =   -4.552185082565  dUele     =   1.000000000000
<DFT>  NormRD =    1.000000000000  Criterion =   0.000000036749

******************* MD= 1  SCF= 2 *******************
<Poisson>  Poisson's equation using FFT...
<Set_Hamiltonian>  Hamiltonian matrix for VNA+dVH+Vxc...
<Cluster>  Solving the eigenvalue problem...
    1    H  MulP   0.5000  0.5000 sum   1.0000
    2    H  MulP   0.5000  0.5000 sum   1.0000
    3    H  MulP   0.5000  0.5000 sum   1.0000
    4    H  MulP   0.5000  0.5000 sum   1.0000
    5    H  MulP   0.5000  0.5000 sum   1.0000
    6    H  MulP   0.5000  0.5000 sum   1.0000
    7    H  MulP   0.5000  0.5000 sum   1.0000
    8    H  MulP   0.5000  0.5000 sum   1.0000
 Sum of MulP: up   =     4.00000 down          =     4.00000
              total=     8.00000 ideal(neutral)=     8.00000
<DFT>  Total Spin Moment (muB) =  0.000000000000
<DFT>  Mixing_weight= 0.400000000000
<DFT>  Uele   =   -3.993203604534  dUele     =   0.558981478031
<DFT>  NormRD =    0.658405803158  Criterion =   0.000000036749

******************* MD= 1  SCF= 3 *******************
<Poisson>  Poisson's equation using FFT...
<Set_Hamiltonian>  Hamiltonian matrix for VNA+dVH+Vxc...
<Cluster>  Solving the eigenvalue problem...
    1    H  MulP   0.5000  0.5000 sum   1.0000
    2    H  MulP   0.5000  0.5000 sum   1.0000
    3    H  MulP   0.5000  0.5000 sum   1.0000
    4    H  MulP   0.5000  0.5000 sum   1.0000
    5    H  MulP   0.5000  0.5000 sum   1.0000
    6    H  MulP   0.5000  0.5000 sum   1.0000
    7    H  MulP   0.5000  0.5000 sum   1.0000
    8    H  MulP   0.5000  0.5000 sum   1.0000
 Sum of MulP: up   =     4.00000 down          =     4.00000
              total=     8.00000 ideal(neutral)=     8.00000
<DFT>  Total Spin Moment (muB) =  0.000000000000
<DFT>  Mixing_weight= 0.400000000000
<DFT>  Uele   =   -3.690363912278  dUele     =   0.302839692256
<DFT>  NormRD =    0.357042656082  Criterion =   0.000000036749

******************* MD= 1  SCF= 4 *******************
<Poisson>  Poisson's equation using FFT...
<Set_Hamiltonian>  Hamiltonian matrix for VNA+dVH+Vxc...
<Cluster>  Solving the eigenvalue problem...
    1    H  MulP   0.5000  0.5000 sum   1.0000
    2    H  MulP   0.5000  0.5000 sum   1.0000
    3    H  MulP   0.5000  0.5000 sum   1.0000
    4    H  MulP   0.5000  0.5000 sum   1.0000
    5    H  MulP   0.5000  0.5000 sum   1.0000
    6    H  MulP   0.5000  0.5000 sum   1.0000
    7    H  MulP   0.5000  0.5000 sum   1.0000
    8    H  MulP   0.5000  0.5000 sum   1.0000
 Sum of MulP: up   =     4.00000 down          =     4.00000
              total=     8.00000 ideal(neutral)=     8.00000
<DFT>  Total Spin Moment (muB) =  0.000000000000
<DFT>  Mixing_weight= 0.001200667673
<DFT>  Uele   =   -3.291317865619  dUele     =   0.399046046658
<DFT>  NormRD =    6.507076418353  Criterion =   0.000000036749

******************* MD= 1  SCF= 5 *******************
<Poisson>  Poisson's equation using FFT...
<Set_Hamiltonian>  Hamiltonian matrix for VNA+dVH+Vxc...
<Cluster>  Solving the eigenvalue problem...
    1    H  MulP   0.5000  0.5000 sum   1.0000
    2    H  MulP   0.5000  0.5000 sum   1.0000
    3    H  MulP   0.5000  0.5000 sum   1.0000
    4    H  MulP   0.5000  0.5000 sum   1.0000
    5    H  MulP   0.5000  0.5000 sum   1.0000
    6    H  MulP   0.5000  0.5000 sum   1.0000
    7    H  MulP   0.5000  0.5000 sum   1.0000
    8    H  MulP   0.5000  0.5000 sum   1.0000
 Sum of MulP: up   =     4.00000 down          =     4.00000
              total=     8.00000 ideal(neutral)=     8.00000
<DFT>  Total Spin Moment (muB) =  0.000000000000
<DFT>  Mixing_weight= 0.001000000000
<DFT>  Uele   =   -3.251301549868  dUele     =   0.040016315751
<DFT>  NormRD =    7.137076399803  Criterion =   0.000000036749

******************* MD= 1  SCF= 6 *******************
<Poisson>  Poisson's equation using FFT...
<Set_Hamiltonian>  Hamiltonian matrix for VNA+dVH+Vxc...
<Cluster>  Solving the eigenvalue problem...
    1    H  MulP   0.5000  0.5000 sum   1.0000
    2    H  MulP   0.5000  0.5000 sum   1.0000
    3    H  MulP   0.5000  0.5000 sum   1.0000
    4    H  MulP   0.5000  0.5000 sum   1.0000
    5    H  MulP   0.5000  0.5000 sum   1.0000
    6    H  MulP   0.5000  0.5000 sum   1.0000
    7    H  MulP   0.5000  0.5000 sum   1.0000
    8    H  MulP   0.5000  0.5000 sum   1.0000
 Sum of MulP: up   =     4.00000 down          =     4.00000
              total=     8.00000 ideal(neutral)=     8.00000
<DFT>  Total Spin Moment (muB) =  0.000000000000
<DFT>  Mixing_weight= 0.001000000000
<DFT>  Uele   =   -3.253025331533  dUele     =   0.001723781664
<DFT>  NormRD =    7.126949938851  Criterion =   0.000000036749

******************* MD= 1  SCF= 7 *******************
<Poisson>  Poisson's equation using FFT...
<Set_Hamiltonian>  Hamiltonian matrix for VNA+dVH+Vxc...
<Cluster>  Solving the eigenvalue problem...
    1    H  MulP   0.5000  0.5000 sum   1.0000
    2    H  MulP   0.5000  0.5000 sum   1.0000
    3    H  MulP   0.5000  0.5000 sum   1.0000
    4    H  MulP   0.5000  0.5000 sum   1.0000
    5    H  MulP   0.5000  0.5000 sum   1.0000
    6    H  MulP   0.5000  0.5000 sum   1.0000
    7    H  MulP   0.5000  0.5000 sum   1.0000
    8    H  MulP   0.5000  0.5000 sum   1.0000
 Sum of MulP: up   =     4.00000 down          =     4.00000
              total=     8.00000 ideal(neutral)=     8.00000
<DFT>  Total Spin Moment (muB) =  0.000000000000
<DFT>  Mixing_weight= 0.001000000000
<DFT>  Uele   =   -3.254745102503  dUele     =   0.001719770970
<DFT>  NormRD =    7.116613767869  Criterion =   0.000000036749

******************* MD= 1  SCF= 8 *******************
<Poisson>  Poisson's equation using FFT...
<Set_Hamiltonian>  Hamiltonian matrix for VNA+dVH+Vxc...
<Cluster>  Solving the eigenvalue problem...
    1    H  MulP   0.5000  0.5000 sum   1.0000
    2    H  MulP   0.5000  0.5000 sum   1.0000
    3    H  MulP   0.5000  0.5000 sum   1.0000
    4    H  MulP   0.5000  0.5000 sum   1.0000
    5    H  MulP   0.5000  0.5000 sum   1.0000
    6    H  MulP   0.5000  0.5000 sum   1.0000
    7    H  MulP   0.5000  0.5000 sum   1.0000
    8    H  MulP   0.5000  0.5000 sum   1.0000
 Sum of MulP: up   =     4.00000 down          =     4.00000
              total=     8.00000 ideal(neutral)=     8.00000
<DFT>  Total Spin Moment (muB) =  0.000000000000
<DFT>  Mixing_weight= 0.001000000000
<DFT>  Uele   =   -4.424564823157  dUele     =   1.169819720654
<DFT>  NormRD =    5.483607532668  Criterion =   0.000000036749

******************* MD= 1  SCF= 9 *******************
<Poisson>  Poisson's equation using FFT...
<Set_Hamiltonian>  Hamiltonian matrix for VNA+dVH+Vxc...
<Cluster>  Solving the eigenvalue problem...
    1    H  MulP   0.5000  0.5000 sum   1.0000
    2    H  MulP   0.5000  0.5000 sum   1.0000
    3    H  MulP   0.5000  0.5000 sum   1.0000
    4    H  MulP   0.5000  0.5000 sum   1.0000
    5    H  MulP   0.5000  0.5000 sum   1.0000
    6    H  MulP   0.5000  0.5000 sum   1.0000
    7    H  MulP   0.5000  0.5000 sum   1.0000
    8    H  MulP   0.5000  0.5000 sum   1.0000
 Sum of MulP: up   =     4.00000 down          =     4.00000
              total=     8.00000 ideal(neutral)=     8.00000
<DFT>  Total Spin Moment (muB) =  0.000000000000
<DFT>  Mixing_weight= 0.001000000000
<DFT>  Uele   =   -4.024974172596  dUele     =   0.399590650561
<DFT>  NormRD =    2.988019097203  Criterion =   0.000000036749

******************* MD= 1  SCF=10 *******************
<Poisson>  Poisson's equation using FFT...
<Set_Hamiltonian>  Hamiltonian matrix for VNA+dVH+Vxc...
<Cluster>  Solving the eigenvalue problem...
    1    H  MulP   0.5000  0.5000 sum   1.0000
    2    H  MulP   0.5000  0.5000 sum   1.0000
    3    H  MulP   0.5000  0.5000 sum   1.0000
    4    H  MulP   0.5000  0.5000 sum   1.0000
    5    H  MulP   0.5000  0.5000 sum   1.0000
    6    H  MulP   0.5000  0.5000 sum   1.0000
    7    H  MulP   0.5000  0.5000 sum   1.0000
    8    H  MulP   0.5000  0.5000 sum   1.0000
 Sum of MulP: up   =     4.00000 down          =     4.00000
              total=     8.00000 ideal(neutral)=     8.00000
<DFT>  Total Spin Moment (muB) =  0.000000000000
<DFT>  Mixing_weight= 0.001000000000
<DFT>  Uele   =   -3.935306466622  dUele     =   0.089667705974
<DFT>  NormRD =    2.508234314504  Criterion =   0.000000036749

******************* MD= 1  SCF=11 *******************
<Poisson>  Poisson's equation using FFT...
<Set_Hamiltonian>  Hamiltonian matrix for VNA+dVH+Vxc...
<Cluster>  Solving the eigenvalue problem...
    1    H  MulP   0.5000  0.5000 sum   1.0000
    2    H  MulP   0.5000  0.5000 sum   1.0000
    3    H  MulP   0.5000  0.5000 sum   1.0000
    4    H  MulP   0.5000  0.5000 sum   1.0000
    5    H  MulP   0.5000  0.5000 sum   1.0000
    6    H  MulP   0.5000  0.5000 sum   1.0000
    7    H  MulP   0.5000  0.5000 sum   1.0000
    8    H  MulP   0.5000  0.5000 sum   1.0000
 Sum of MulP: up   =     4.00000 down          =     4.00000
              total=     8.00000 ideal(neutral)=     8.00000
<DFT>  Total Spin Moment (muB) =  0.000000000000
<DFT>  Mixing_weight= 0.001000000000
<DFT>  Uele   =   -3.931844111369  dUele     =   0.003462355253
<DFT>  NormRD =    2.493598557479  Criterion =   0.000000036749

******************* MD= 1  SCF=12 *******************
<Poisson>  Poisson's equation using FFT...
<Set_Hamiltonian>  Hamiltonian matrix for VNA+dVH+Vxc...
<Cluster>  Solving the eigenvalue problem...
    1    H  MulP   0.5000  0.5000 sum   1.0000
    2    H  MulP   0.5000  0.5000 sum   1.0000
    3    H  MulP   0.5000  0.5000 sum   1.0000
    4    H  MulP   0.5000  0.5000 sum   1.0000
    5    H  MulP   0.5000  0.5000 sum   1.0000
    6    H  MulP   0.5000  0.5000 sum   1.0000
    7    H  MulP   0.5000  0.5000 sum   1.0000
    8    H  MulP   0.5000  0.5000 sum   1.0000
 Sum of MulP: up   =     4.00000 down          =     4.00000
              total=     8.00000 ideal(neutral)=     8.00000
<DFT>  Total Spin Moment (muB) =  0.000000000000
<DFT>  Mixing_weight= 0.001000000000
<DFT>  Uele   =   -3.034736557866  dUele     =   0.897107553503
<DFT>  NormRD =    2.611049857046  Criterion =   0.000000036749

******************* MD= 1  SCF=13 *******************
<Poisson>  Poisson's equation using FFT...
<Set_Hamiltonian>  Hamiltonian matrix for VNA+dVH+Vxc...
<Cluster>  Solving the eigenvalue problem...
    1    H  MulP   0.5000  0.5000 sum   1.0000
    2    H  MulP   0.5000  0.5000 sum   1.0000
    3    H  MulP   0.5000  0.5000 sum   1.0000
    4    H  MulP   0.5000  0.5000 sum   1.0000
    5    H  MulP   0.5000  0.5000 sum   1.0000
    6    H  MulP   0.5000  0.5000 sum   1.0000
    7    H  MulP   0.5000  0.5000 sum   1.0000
    8    H  MulP   0.5000  0.5000 sum   1.0000
 Sum of MulP: up   =     4.00000 down          =     4.00000
              total=     8.00000 ideal(neutral)=     8.00000
<DFT>  Total Spin Moment (muB) =  0.000000000000
<DFT>  Mixing_weight= 0.001000000000
<DFT>  Uele   =   -3.383134362646  dUele     =   0.348397804780
<DFT>  NormRD =    0.770386654601  Criterion =   0.000000036749

******************* MD= 1  SCF=14 *******************
<Poisson>  Poisson's equation using FFT...
<Set_Hamiltonian>  Hamiltonian matrix for VNA+dVH+Vxc...
<Cluster>  Solving the eigenvalue problem...
    1    H  MulP   0.5000  0.5000 sum   1.0000
    2    H  MulP   0.5000  0.5000 sum   1.0000
    3    H  MulP   0.5000  0.5000 sum   1.0000
    4    H  MulP   0.5000  0.5000 sum   1.0000
    5    H  MulP   0.5000  0.5000 sum   1.0000
    6    H  MulP   0.5000  0.5000 sum   1.0000
    7    H  MulP   0.5000  0.5000 sum   1.0000
    8    H  MulP   0.5000  0.5000 sum   1.0000
 Sum of MulP: up   =     4.00000 down          =     4.00000
              total=     8.00000 ideal(neutral)=     8.00000
<DFT>  Total Spin Moment (muB) =  0.000000000000
<DFT>  Mixing_weight= 0.001000000000
<DFT>  Uele   =   -3.582710727603  dUele     =   0.199576364956
<DFT>  NormRD =    0.870629577746  Criterion =   0.000000036749

******************* MD= 1  SCF=15 *******************
<Poisson>  Poisson's equation using FFT...
<Set_Hamiltonian>  Hamiltonian matrix for VNA+dVH+Vxc...
<Cluster>  Solving the eigenvalue problem...
    1    H  MulP   0.5000  0.5000 sum   1.0000
    2    H  MulP   0.5000  0.5000 sum   1.0000
    3    H  MulP   0.5000  0.5000 sum   1.0000
    4    H  MulP   0.5000  0.5000 sum   1.0000
    5    H  MulP   0.5000  0.5000 sum   1.0000
    6    H  MulP   0.5000  0.5000 sum   1.0000
    7    H  MulP   0.5000  0.5000 sum   1.0000
    8    H  MulP   0.5000  0.5000 sum   1.0000
 Sum of MulP: up   =     4.00000 down          =     4.00000
              total=     8.00000 ideal(neutral)=     8.00000
<DFT>  Total Spin Moment (muB) =  0.000000000000
<DFT>  Mixing_weight= 0.001000000000
<DFT>  Uele   =   -3.493130582955  dUele     =   0.089580144648
<DFT>  NormRD =    0.469922901625  Criterion =   0.000000036749

******************* MD= 1  SCF=16 *******************
<Poisson>  Poisson's equation using FFT...
<Set_Hamiltonian>  Hamiltonian matrix for VNA+dVH+Vxc...
<Cluster>  Solving the eigenvalue problem...
    1    H  MulP   0.5000  0.5000 sum   1.0000
    2    H  MulP   0.5000  0.5000 sum   1.0000
    3    H  MulP   0.5000  0.5000 sum   1.0000
    4    H  MulP   0.5000  0.5000 sum   1.0000
    5    H  MulP   0.5000  0.5000 sum   1.0000
    6    H  MulP   0.5000  0.5000 sum   1.0000
    7    H  MulP   0.5000  0.5000 sum   1.0000
    8    H  MulP   0.5000  0.5000 sum   1.0000
 Sum of MulP: up   =     4.00000 down          =     4.00000
              total=     8.00000 ideal(neutral)=     8.00000
<DFT>  Total Spin Moment (muB) =  0.000000000000
<DFT>  Mixing_weight= 0.001000000000
<DFT>  Uele   =   -3.457398812065  dUele     =   0.035731770890
<DFT>  NormRD =    0.288050259582  Criterion =   0.000000036749

******************* MD= 1  SCF=17 *******************
<Poisson>  Poisson's equation using FFT...
<Set_Hamiltonian>  Hamiltonian matrix for VNA+dVH+Vxc...
<Cluster>  Solving the eigenvalue problem...
    1    H  MulP   0.5000  0.5000 sum   1.0000
    2    H  MulP   0.5000  0.5000 sum   1.0000
    3    H  MulP   0.5000  0.5000 sum   1.0000
    4    H  MulP   0.5000  0.5000 sum   1.0000
    5    H  MulP   0.5000  0.5000 sum   1.0000
    6    H  MulP   0.5000  0.5000 sum   1.0000
    7    H  MulP   0.5000  0.5000 sum   1.0000
    8    H  MulP   0.5000  0.5000 sum   1.0000
 Sum of MulP: up   =     4.00000 down          =     4.00000
              total=     8.00000 ideal(neutral)=     8.00000
<DFT>  Total Spin Moment (muB) =  0.000000000000
<DFT>  Mixing_weight= 0.001000000000
<DFT>  Uele   =   -3.426194022943  dUele     =   0.031204789121
<DFT>  NormRD =    0.047573830563  Criterion =   0.000000036749

******************* MD= 1  SCF=18 *******************
<Poisson>  Poisson's equation using FFT...
<Set_Hamiltonian>  Hamiltonian matrix for VNA+dVH+Vxc...
<Cluster>  Solving the eigenvalue problem...
    1    H  MulP   0.5000  0.5000 sum   1.0000
    2    H  MulP   0.5000  0.5000 sum   1.0000
    3    H  MulP   0.5000  0.5000 sum   1.0000
    4    H  MulP   0.5000  0.5000 sum   1.0000
    5    H  MulP   0.5000  0.5000 sum   1.0000
    6    H  MulP   0.5000  0.5000 sum   1.0000
    7    H  MulP   0.5000  0.5000 sum   1.0000
    8    H  MulP   0.5000  0.5000 sum   1.0000
 Sum of MulP: up   =     4.00000 down          =     4.00000
              total=     8.00000 ideal(neutral)=     8.00000
<DFT>  Total Spin Moment (muB) =  0.000000000000
<DFT>  Mixing_weight= 0.001000000000
<DFT>  Uele   =   -3.431071168617  dUele     =   0.004877145674
<DFT>  NormRD =    0.083339871907  Criterion =   0.000000036749

******************* MD= 1  SCF=19 *******************
<Poisson>  Poisson's equation using FFT...
<Set_Hamiltonian>  Hamiltonian matrix for VNA+dVH+Vxc...
<Cluster>  Solving the eigenvalue problem...
    1    H  MulP   0.5000  0.5000 sum   1.0000
    2    H  MulP   0.5000  0.5000 sum   1.0000
    3    H  MulP   0.5000  0.5000 sum   1.0000
    4    H  MulP   0.5000  0.5000 sum   1.0000
    5    H  MulP   0.5000  0.5000 sum   1.0000
    6    H  MulP   0.5000  0.5000 sum   1.0000
    7    H  MulP   0.5000  0.5000 sum   1.0000
    8    H  MulP   0.5000  0.5000 sum   1.0000
 Sum of MulP: up   =     4.00000 down          =     4.00000
              total=     8.00000 ideal(neutral)=     8.00000
<DFT>  Total Spin Moment (muB) =  0.000000000000
<DFT>  Mixing_weight= 0.001000000000
<DFT>  Uele   =   -3.428788691260  dUele     =   0.002282477357
<DFT>  NormRD =    0.061553302936  Criterion =   0.000000036749

******************* MD= 1  SCF=20 *******************
<Poisson>  Poisson's equation using FFT...
<Set_Hamiltonian>  Hamiltonian matrix for VNA+dVH+Vxc...
<Cluster>  Solving the eigenvalue problem...
    1    H  MulP   0.5000  0.5000 sum   1.0000
    2    H  MulP   0.5000  0.5000 sum   1.0000
    3    H  MulP   0.5000  0.5000 sum   1.0000
    4    H  MulP   0.5000  0.5000 sum   1.0000
    5    H  MulP   0.5000  0.5000 sum   1.0000
    6    H  MulP   0.5000  0.5000 sum   1.0000
    7    H  MulP   0.5000  0.5000 sum   1.0000
    8    H  MulP   0.5000  0.5000 sum   1.0000
 Sum of MulP: up   =     4.00000 down          =     4.00000
              total=     8.00000 ideal(neutral)=     8.00000
<DFT>  Total Spin Moment (muB) =  0.000000000000
<DFT>  Mixing_weight= 0.001000000000
<DFT>  Uele   =   -3.424685836859  dUele     =   0.004102854401
<DFT>  NormRD =    0.021296181240  Criterion =   0.000000036749

******************* MD= 1  SCF=21 *******************
<Poisson>  Poisson's equation using FFT...
<Set_Hamiltonian>  Hamiltonian matrix for VNA+dVH+Vxc...
<Cluster>  Solving the eigenvalue problem...
    1    H  MulP   0.5000  0.5000 sum   1.0000
    2    H  MulP   0.5000  0.5000 sum   1.0000
    3    H  MulP   0.5000  0.5000 sum   1.0000
    4    H  MulP   0.5000  0.5000 sum   1.0000
    5    H  MulP   0.5000  0.5000 sum   1.0000
    6    H  MulP   0.5000  0.5000 sum   1.0000
    7    H  MulP   0.5000  0.5000 sum   1.0000
    8    H  MulP   0.5000  0.5000 sum   1.0000
 Sum of MulP: up   =     4.00000 down          =     4.00000
              total=     8.00000 ideal(neutral)=     8.00000
<DFT>  Total Spin Moment (muB) =  0.000000000000
<DFT>  Mixing_weight= 0.001000000000
<DFT>  Uele   =   -3.421171050396  dUele     =   0.003514786463
<DFT>  NormRD =    0.017466050394  Criterion =   0.000000036749

******************* MD= 1  SCF=22 *******************
<Poisson>  Poisson's equation using FFT...
<Set_Hamiltonian>  Hamiltonian matrix for VNA+dVH+Vxc...
<Cluster>  Solving the eigenvalue problem...
    1    H  MulP   0.5000  0.5000 sum   1.0000
    2    H  MulP   0.5000  0.5000 sum   1.0000
    3    H  MulP   0.5000  0.5000 sum   1.0000
    4    H  MulP   0.5000  0.5000 sum   1.0000
    5    H  MulP   0.5000  0.5000 sum   1.0000
    6    H  MulP   0.5000  0.5000 sum   1.0000
    7    H  MulP   0.5000  0.5000 sum   1.0000
    8    H  MulP   0.5000  0.5000 sum   1.0000
 Sum of MulP: up   =     4.00000 down          =     4.00000
              total=     8.00000 ideal(neutral)=     8.00000
<DFT>  Total Spin Moment (muB) =  0.000000000000
<DFT>  Mixing_weight= 0.001000000000
<DFT>  Uele   =   -3.422896744509  dUele     =   0.001725694113
<DFT>  NormRD =    0.001772424670  Criterion =   0.000000036749

******************* MD= 1  SCF=23 *******************
<Poisson>  Poisson's equation using FFT...
<Set_Hamiltonian>  Hamiltonian matrix for VNA+dVH+Vxc...
<Cluster>  Solving the eigenvalue problem...
    1    H  MulP   0.5000  0.5000 sum   1.0000
    2    H  MulP   0.5000  0.5000 sum   1.0000
    3    H  MulP   0.5000  0.5000 sum   1.0000
    4    H  MulP   0.5000  0.5000 sum   1.0000
    5    H  MulP   0.5000  0.5000 sum   1.0000
    6    H  MulP   0.5000  0.5000 sum   1.0000
    7    H  MulP   0.5000  0.5000 sum   1.0000
    8    H  MulP   0.5000  0.5000 sum   1.0000
 Sum of MulP: up   =     4.00000 down          =     4.00000
              total=     8.00000 ideal(neutral)=     8.00000
<DFT>  Total Spin Moment (muB) =  0.000000000000
<DFT>  Mixing_weight= 0.001000000000
<DFT>  Uele   =   -3.422812504474  dUele     =   0.000084240035
<DFT>  NormRD =    0.000819883349  Criterion =   0.000000036749

******************* MD= 1  SCF=24 *******************
<Poisson>  Poisson's equation using FFT...
<Set_Hamiltonian>  Hamiltonian matrix for VNA+dVH+Vxc...
<Cluster>  Solving the eigenvalue problem...
    1    H  MulP   0.5000  0.5000 sum   1.0000
    2    H  MulP   0.5000  0.5000 sum   1.0000
    3    H  MulP   0.5000  0.5000 sum   1.0000
    4    H  MulP   0.5000  0.5000 sum   1.0000
    5    H  MulP   0.5000  0.5000 sum   1.0000
    6    H  MulP   0.5000  0.5000 sum   1.0000
    7    H  MulP   0.5000  0.5000 sum   1.0000
    8    H  MulP   0.5000  0.5000 sum   1.0000
 Sum of MulP: up   =     4.00000 down          =     4.00000
              total=     8.00000 ideal(neutral)=     8.00000
<DFT>  Total Spin Moment (muB) =  0.000000000000
<DFT>  Mixing_weight= 0.001000000000
<DFT>  Uele   =   -3.422744002578  dUele     =   0.000068501896
<DFT>  NormRD =    0.000037048218  Criterion =   0.000000036749

******************* MD= 1  SCF=25 *******************
<Poisson>  Poisson's equation using FFT...
<Set_Hamiltonian>  Hamiltonian matrix for VNA+dVH+Vxc...
<Cluster>  Solving the eigenvalue problem...
    1    H  MulP   0.5000  0.5000 sum   1.0000
    2    H  MulP   0.5000  0.5000 sum   1.0000
    3    H  MulP   0.5000  0.5000 sum   1.0000
    4    H  MulP   0.5000  0.5000 sum   1.0000
    5    H  MulP   0.5000  0.5000 sum   1.0000
    6    H  MulP   0.5000  0.5000 sum   1.0000
    7    H  MulP   0.5000  0.5000 sum   1.0000
    8    H  MulP   0.5000  0.5000 sum   1.0000
 Sum of MulP: up   =     4.00000 down          =     4.00000
              total=     8.00000 ideal(neutral)=     8.00000
<DFT>  Total Spin Moment (muB) =  0.000000000000
<DFT>  Mixing_weight= 0.001000000000
<DFT>  Uele   =   -3.422741193604  dUele     =   0.000002808975
<DFT>  NormRD =    0.000009800685  Criterion =   0.000000036749

******************* MD= 1  SCF=26 *******************
<Poisson>  Poisson's equation using FFT...
<Set_Hamiltonian>  Hamiltonian matrix for VNA+dVH+Vxc...
<Cluster>  Solving the eigenvalue problem...
    1    H  MulP   0.5000  0.5000 sum   1.0000
    2    H  MulP   0.5000  0.5000 sum   1.0000
    3    H  MulP   0.5000  0.5000 sum   1.0000
    4    H  MulP   0.5000  0.5000 sum   1.0000
    5    H  MulP   0.5000  0.5000 sum   1.0000
    6    H  MulP   0.5000  0.5000 sum   1.0000
    7    H  MulP   0.5000  0.5000 sum   1.0000
    8    H  MulP   0.5000  0.5000 sum   1.0000
 Sum of MulP: up   =     4.00000 down          =     4.00000
              total=     8.00000 ideal(neutral)=     8.00000
<DFT>  Total Spin Moment (muB) =  0.000000000000
<DFT>  Mixing_weight= 0.001000000000
<DFT>  Uele   =   -3.422740329061  dUele     =   0.000000864542
<DFT>  NormRD =    0.000002679883  Criterion =   0.000000036749

******************* MD= 1  SCF=27 *******************
<Poisson>  Poisson's equation using FFT...
<Set_Hamiltonian>  Hamiltonian matrix for VNA+dVH+Vxc...
<Cluster>  Solving the eigenvalue problem...
    1    H  MulP   0.5000  0.5000 sum   1.0000
    2    H  MulP   0.5000  0.5000 sum   1.0000
    3    H  MulP   0.5000  0.5000 sum   1.0000
    4    H  MulP   0.5000  0.5000 sum   1.0000
    5    H  MulP   0.5000  0.5000 sum   1.0000
    6    H  MulP   0.5000  0.5000 sum   1.0000
    7    H  MulP   0.5000  0.5000 sum   1.0000
    8    H  MulP   0.5000  0.5000 sum   1.0000
 Sum of MulP: up   =     4.00000 down          =     4.00000
              total=     8.00000 ideal(neutral)=     8.00000
<DFT>  Total Spin Moment (muB) =  0.000000000000
<DFT>  Mixing_weight= 0.001000000000
<DFT>  Uele   =   -3.422740350804  dUele     =   0.000000021742
<DFT>  NormRD =    0.000001536600  Criterion =   0.000000036749
<MD= 1>  Force calculation
  Force calculation #1
  Force calculation #2
  Force calculation #3
  Force calculation #4
  Force calculation #5
<MD= 1>  Total Energy
  Force calculation #6
  Force calculation #7

*******************************************************
                  Dipole moment (Debye)                 
*******************************************************

 Absolute D        3.09735030

                      Dx                Dy                Dz
 Total              3.09735030       -0.00000001       -0.00000000
 Core              94.14285325        0.00000000        0.00000000
 Electron         -91.04550295       -0.00000001       -0.00000000
 Back ground       -0.00000000        0.00000000       -0.00000000

*******************************************************
[...]
GridVol     =      0.843541629638 (Bohr^3)
<UCell_Box> Info. of cutoff energy and num. of grids
lattice vectors (bohr)
A  = 45.353423725894,  0.000000000000,  0.000000000000
B  =  0.000000000000, 28.345889828684,  0.000000000000
C  =  0.000000000000,  0.000000000000, 28.345889828684
reciprocal lattice vectors (bohr^-1)
RA =  0.138538279825,  0.000000000000,  0.000000000000
RB =  0.000000000000,  0.221661247721,  0.000000000000
RC =  0.000000000000,  0.000000000000,  0.221661247721
Required cutoff energy (Ryd) for 3D-grids = 11.0248
    Used cutoff energy (Ryd) for 3D-grids = 11.0551, 11.0551, 11.0551
Num. of grids of a-, b-, and c-axes = 48, 30, 30
Grid_Origin -2.362157485724 -13.700513417197 -13.700513417197
Cell_Volume =  36440.998400362412 (Bohr^3)
GridVol     =      0.843541629638 (Bohr^3)
Cell vectors (bohr) of the grid cell (gtv)
  gtv_a =  0.944862994289,  0.000000000000,  0.000000000000
  gtv_b =  0.000000000000,  0.944862994289,  0.000000000000
  gtv_c =  0.000000000000,  0.000000000000,  0.944862994289
  |gtv_a| =  0.944862994289
  |gtv_b| =  0.944862994289
  |gtv_c| =  0.944862994289
Num. of grids overlapping with atom    1 = 1064
Num. of grids overlapping with atom    2 = 1064
Num. of grids overlapping with atom    3 = 1064
Num. of grids overlapping with atom    4 = 1064
Num. of grids overlapping with atom    5 = 1064
Num. of grids overlapping with atom    6 = 1064
Num. of grids overlapping with atom    7 = 1064
Num. of grids overlapping with atom    8 = 1064

*******************************************************
             SCF calculation at MD = 1                
*******************************************************

<MD= 1>  Calculation of the overlap matrix
<MD= 1>  Calculation of the nonlocal matrix
<MD= 1>  Calculation of the VNA projector matrix

******************* MD= 1  SCF= 1 *******************
<Cluster>  Solving the eigenvalue problem...
    1    H  MulP   0.5000  0.5000 sum   1.0000
    2    H  MulP   0.5000  0.5000 sum   1.0000
    3    H  MulP   0.5000  0.5000 sum   1.0000
    4    H  MulP   0.5000  0.5000 sum   1.0000
    5    H  MulP   0.5000  0.5000 sum   1.0000
    6    H  MulP   0.5000  0.5000 sum   1.0000
    7    H  MulP   0.5000  0.5000 sum   1.0000
    8    H  MulP   0.5000  0.5000 sum   1.0000
 Sum of MulP: up   =     4.00000 down          =     4.00000
              total=     8.00000 ideal(neutral)=     8.00000
<DFT>  Total Spin Moment (muB) =  0.000000000000
<DFT>  Mixing_weight= 0.300000000000
<DFT>  Uele   =   -1.789466516609  dUele     =   1.000000000000
<DFT>  NormRD =    1.000000000000  Criterion =   0.000000036749

******************* MD= 1  SCF= 2 *******************
<Poisson>  Poisson's equation using FFT...
<Set_Hamiltonian>  Hamiltonian matrix for VNA+dVH+Vxc...
<Cluster>  Solving the eigenvalue problem...
    1    H  MulP   0.5000  0.5000 sum   1.0000
    2    H  MulP   0.5000  0.5000 sum   1.0000
    3    H  MulP   0.5000  0.5000 sum   1.0000
    4    H  MulP   0.5000  0.5000 sum   1.0000
    5    H  MulP   0.5000  0.5000 sum   1.0000
    6    H  MulP   0.5000  0.5000 sum   1.0000
    7    H  MulP   0.5000  0.5000 sum   1.0000
    8    H  MulP   0.5000  0.5000 sum   1.0000
 Sum of MulP: up   =     4.00000 down          =     4.00000
              total=     8.00000 ideal(neutral)=     8.00000
<DFT>  Total Spin Moment (muB) =  0.000000000000
<DFT>  Mixing_weight= 0.300340754200
<DFT>  Uele   =   -1.814894080937  dUele     =   0.025427564328
<DFT>  NormRD =    0.033683210161  Criterion =   0.000000036749

******************* MD= 1  SCF= 3 *******************
<Poisson>  Poisson's equation using FFT...
<Set_Hamiltonian>  Hamiltonian matrix for VNA+dVH+Vxc...
<Cluster>  Solving the eigenvalue problem...
    1    H  MulP   0.5000  0.5000 sum   1.0000
    2    H  MulP   0.5000  0.5000 sum   1.0000
    3    H  MulP   0.5000  0.5000 sum   1.0000
    4    H  MulP   0.5000  0.5000 sum   1.0000
    5    H  MulP   0.5000  0.5000 sum   1.0000
    6    H  MulP   0.5000  0.5000 sum   1.0000
    7    H  MulP   0.5000  0.5000 sum   1.0000
    8    H  MulP   0.5000  0.5000 sum   1.0000
 Sum of MulP: up   =     4.00000 down          =     4.00000
              total=     8.00000 ideal(neutral)=     8.00000
<DFT>  Total Spin Moment (muB) =  0.000000000000
<DFT>  Mixing_weight= 0.400000000000
<DFT>  Uele   =   -1.838173048911  dUele     =   0.023278967974
<DFT>  NormRD =    0.023169642216  Criterion =   0.000000036749

******************* MD= 1  SCF= 4 *******************
<Poisson>  Poisson's equation using FFT...
<Set_Hamiltonian>  Hamiltonian matrix for VNA+dVH+Vxc...
<Cluster>  Solving the eigenvalue problem...
    1    H  MulP   0.5000  0.5000 sum   1.0000
    2    H  MulP   0.5000  0.5000 sum   1.0000
    3    H  MulP   0.5000  0.5000 sum   1.0000
    4    H  MulP   0.5000  0.5000 sum   1.0000
    5    H  MulP   0.5000  0.5000 sum   1.0000
    6    H  MulP   0.5000  0.5000 sum   1.0000
    7    H  MulP   0.5000  0.5000 sum   1.0000
    8    H  MulP   0.5000  0.5000 sum   1.0000
 Sum of MulP: up   =     4.00000 down          =     4.00000
              total=     8.00000 ideal(neutral)=     8.00000
<DFT>  Total Spin Moment (muB) =  0.000000000000
<DFT>  Mixing_weight= 0.400000000000
<DFT>  Uele   =   -1.872135080236  dUele     =   0.033962031325
<DFT>  NormRD =    0.005762323378  Criterion =   0.000000036749

******************* MD= 1  SCF= 5 *******************
<Poisson>  Poisson's equation using FFT...
<Set_Hamiltonian>  Hamiltonian matrix for VNA+dVH+Vxc...
<Cluster>  Solving the eigenvalue problem...
    1    H  MulP   0.5002  0.5002 sum   1.0004
    2    H  MulP   0.4998  0.4998 sum   0.9996
    3    H  MulP   0.5002  0.5002 sum   1.0004
    4    H  MulP   0.4998  0.4998 sum   0.9996
    5    H  MulP   0.5002  0.5002 sum   1.0004
    6    H  MulP   0.4998  0.4998 sum   0.9996
    7    H  MulP   0.5002  0.5002 sum   1.0004
    8    H  MulP   0.4998  0.4998 sum   0.9996
 Sum of MulP: up   =     4.00000 down          =     4.00000
              total=     8.00000 ideal(neutral)=     8.00000
<DFT>  Total Spin Moment (muB) =  0.000000000000
<DFT>  Mixing_weight= 0.400000000000
<DFT>  Uele   =   -1.872151953619  dUele     =   0.000016873383
<DFT>  NormRD =    0.003542150165  Criterion =   0.000000036749

******************* MD= 1  SCF= 6 *******************
<Poisson>  Poisson's equation using FFT...
<Set_Hamiltonian>  Hamiltonian matrix for VNA+dVH+Vxc...
<Cluster>  Solving the eigenvalue problem...
    1    H  MulP   0.4977  0.4977 sum   0.9954
    2    H  MulP   0.5023  0.5023 sum   1.0046
    3    H  MulP   0.4977  0.4977 sum   0.9954
    4    H  MulP   0.5023  0.5023 sum   1.0046
    5    H  MulP   0.4977  0.4977 sum   0.9954
    6    H  MulP   0.5023  0.5023 sum   1.0046
    7    H  MulP   0.4977  0.4977 sum   0.9954
    8    H  MulP   0.5023  0.5023 sum   1.0046
 Sum of MulP: up   =     4.00000 down          =     4.00000
              total=     8.00000 ideal(neutral)=     8.00000
<DFT>  Total Spin Moment (muB) =  0.000000000000
<DFT>  Mixing_weight= 0.400000000000
<DFT>  Uele   =   -1.871575767193  dUele     =   0.000576186425
<DFT>  NormRD =    0.009835980362  Criterion =   0.000000036749

******************* MD= 1  SCF= 7 *******************
<Poisson>  Poisson's equation using FFT...
<Set_Hamiltonian>  Hamiltonian matrix for VNA+dVH+Vxc...
<Cluster>  Solving the eigenvalue problem...
    1    H  MulP   0.5285  0.5285 sum   1.0571
    2    H  MulP   0.4714  0.4714 sum   0.9428
    3    H  MulP   0.5285  0.5285 sum   1.0569
    4    H  MulP   0.4714  0.4714 sum   0.9429
    5    H  MulP   0.5285  0.5285 sum   1.0571
    6    H  MulP   0.4715  0.4715 sum   0.9430
    7    H  MulP   0.5286  0.5286 sum   1.0572
    8    H  MulP   0.4715  0.4715 sum   0.9430
 Sum of MulP: up   =     4.00000 down          =     4.00000
              total=     8.00000 ideal(neutral)=     8.00000
<DFT>  Total Spin Moment (muB) =  0.000000000000
<DFT>  Mixing_weight= 0.400000000000
<DFT>  Uele   =   -1.871388040636  dUele     =   0.000187726557
<DFT>  NormRD =    0.119590128832  Criterion =   0.000000036749

******************* MD= 1  SCF= 8 *******************
<Poisson>  Poisson's equation using FFT...
<Set_Hamiltonian>  Hamiltonian matrix for VNA+dVH+Vxc...
<Cluster>  Solving the eigenvalue problem...
    1    H  MulP   0.4999  0.4999 sum   0.9998
    2    H  MulP   0.5001  0.5001 sum   1.0001
    3    H  MulP   0.4998  0.4998 sum   0.9997
    4    H  MulP   0.5001  0.5001 sum   1.0002
    5    H  MulP   0.4999  0.4999 sum   0.9998
    6    H  MulP   0.5001  0.5001 sum   1.0003
    7    H  MulP   0.4999  0.4999 sum   0.9999
    8    H  MulP   0.5001  0.5001 sum   1.0003
 Sum of MulP: up   =     4.00000 down          =     4.00000
              total=     8.00000 ideal(neutral)=     8.00000
<DFT>  Total Spin Moment (muB) =  0.000000000000
<DFT>  Mixing_weight= 0.400000000000
<DFT>  Uele   =   -1.871058408059  dUele     =   0.000329632577
<DFT>  NormRD =    0.000908601869  Criterion =   0.000000036749

******************* MD= 1  SCF= 9 *******************
<Poisson>  Poisson's equation using FFT...
<Set_Hamiltonian>  Hamiltonian matrix for VNA+dVH+Vxc...
<Cluster>  Solving the eigenvalue problem...
    1    H  MulP   0.5003  0.5003 sum   1.0006
    2    H  MulP   0.5010  0.5010 sum   1.0019
    3    H  MulP   0.5016  0.5016 sum   1.0032
    4    H  MulP   0.5005  0.5005 sum   1.0010
    5    H  MulP   0.4999  0.4999 sum   0.9998
    6    H  MulP   0.4989  0.4989 sum   0.9978
    7    H  MulP   0.4989  0.4989 sum   0.9977
    8    H  MulP   0.4990  0.4990 sum   0.9980
 Sum of MulP: up   =     4.00000 down          =     4.00000
              total=     8.00000 ideal(neutral)=     8.00000
<DFT>  Total Spin Moment (muB) =  0.000000000000
<DFT>  Mixing_weight= 0.400000000000
<DFT>  Uele   =   -1.870765263549  dUele     =   0.000293144510
<DFT>  NormRD =    0.003942082312  Criterion =   0.000000036749

******************* MD= 1  SCF=10 *******************
<Poisson>  Poisson's equation using FFT...
<Set_Hamiltonian>  Hamiltonian matrix for VNA+dVH+Vxc...
<Cluster>  Solving the eigenvalue problem...
    1    H  MulP   0.5001  0.5001 sum   1.0003
    2    H  MulP   0.4999  0.4999 sum   0.9997
    3    H  MulP   0.5002  0.5002 sum   1.0003
    4    H  MulP   0.4998  0.4998 sum   0.9996
    5    H  MulP   0.5001  0.5001 sum   1.0003
    6    H  MulP   0.4999  0.4999 sum   0.9998
    7    H  MulP   0.5002  0.5002 sum   1.0003
    8    H  MulP   0.4998  0.4998 sum   0.9997
 Sum of MulP: up   =     4.00000 down          =     4.00000
              total=     8.00000 ideal(neutral)=     8.00000
<DFT>  Total Spin Moment (muB) =  0.000000000000
<DFT>  Mixing_weight= 0.400000000000
<DFT>  Uele   =   -1.870765321189  dUele     =   0.000000057640
<DFT>  NormRD =    0.000642656187  Criterion =   0.000000036749

******************* MD= 1  SCF=11 *******************
<Poisson>  Poisson's equation using FFT...
<Set_Hamiltonian>  Hamiltonian matrix for VNA+dVH+Vxc...
<Cluster>  Solving the eigenvalue problem...
    1    H  MulP   0.5001  0.5001 sum   1.0003
    2    H  MulP   0.4999  0.4999 sum   0.9998
    3    H  MulP   0.4999  0.4999 sum   0.9999
    4    H  MulP   0.5001  0.5001 sum   1.0002
    5    H  MulP   0.5001  0.5001 sum   1.0002
    6    H  MulP   0.4998  0.4998 sum   0.9996
    7    H  MulP   0.5000  0.5000 sum   1.0001
    8    H  MulP   0.5000  0.5000 sum   1.0000
 Sum of MulP: up   =     4.00000 down          =     4.00000
              total=     8.00000 ideal(neutral)=     8.00000
<DFT>  Total Spin Moment (muB) =  0.000000000000
<DFT>  Mixing_weight= 0.400000000000
<DFT>  Uele   =   -1.870764657147  dUele     =   0.000000664043
<DFT>  NormRD =    0.000416735762  Criterion =   0.000000036749

******************* MD= 1  SCF=12 *******************
<Poisson>  Poisson's equation using FFT...
<Set_Hamiltonian>  Hamiltonian matrix for VNA+dVH+Vxc...
<Cluster>  Solving the eigenvalue problem...
    1    H  MulP   0.5000  0.5000 sum   0.9999
    2    H  MulP   0.5000  0.5000 sum   1.0001
    3    H  MulP   0.5000  0.5000 sum   0.9999
    4    H  MulP   0.5000  0.5000 sum   1.0001
    5    H  MulP   0.5000  0.5000 sum   0.9999
    6    H  MulP   0.5001  0.5001 sum   1.0001
    7    H  MulP   0.4999  0.4999 sum   0.9999
    8    H  MulP   0.5001  0.5001 sum   1.0001
 Sum of MulP: up   =     4.00000 down          =     4.00000
              total=     8.00000 ideal(neutral)=     8.00000
<DFT>  Total Spin Moment (muB) =  0.000000000000
<DFT>  Mixing_weight= 0.400000000000
<DFT>  Uele   =   -1.870763858033  dUele     =   0.000000799113
<DFT>  NormRD =    0.000208026873  Criterion =   0.000000036749

******************* MD= 1  SCF=13 *******************
<Poisson>  Poisson's equation using FFT...
<Set_Hamiltonian>  Hamiltonian matrix for VNA+dVH+Vxc...
<Cluster>  Solving the eigenvalue problem...
    1    H  MulP   0.5000  0.5000 sum   0.9999
    2    H  MulP   0.5001  0.5001 sum   1.0001
    3    H  MulP   0.4999  0.4999 sum   0.9999
    4    H  MulP   0.5001  0.5001 sum   1.0001
    5    H  MulP   0.5000  0.5000 sum   0.9999
    6    H  MulP   0.5000  0.5000 sum   1.0000
    7    H  MulP   0.5000  0.5000 sum   1.0001
    8    H  MulP   0.5000  0.5000 sum   0.9999
 Sum of MulP: up   =     4.00000 down          =     4.00000
              total=     8.00000 ideal(neutral)=     8.00000
<DFT>  Total Spin Moment (muB) =  0.000000000000
<DFT>  Mixing_weight= 0.400000000000
<DFT>  Uele   =   -1.870763780181  dUele     =   0.000000077852
<DFT>  NormRD =    0.000168589785  Criterion =   0.000000036749

******************* MD= 1  SCF=14 *******************
<Poisson>  Poisson's equation using FFT...
<Set_Hamiltonian>  Hamiltonian matrix for VNA+dVH+Vxc...
<Cluster>  Solving the eigenvalue problem...
    1    H  MulP   0.5000  0.5000 sum   1.0000
    2    H  MulP   0.5000  0.5000 sum   1.0000
    3    H  MulP   0.5000  0.5000 sum   1.0000
    4    H  MulP   0.5000  0.5000 sum   1.0000
    5    H  MulP   0.5000  0.5000 sum   1.0000
    6    H  MulP   0.5000  0.5000 sum   1.0000
    7    H  MulP   0.5000  0.5000 sum   1.0000
    8    H  MulP   0.5000  0.5000 sum   1.0000
 Sum of MulP: up   =     4.00000 down          =     4.00000
              total=     8.00000 ideal(neutral)=     8.00000
<DFT>  Total Spin Moment (muB) =  0.000000000000
<DFT>  Mixing_weight= 0.400000000000
<DFT>  Uele   =   -1.870763783190  dUele     =   0.000000003009
<DFT>  NormRD =    0.000080610621  Criterion =   0.000000036749
<MD= 1>  Force calculation
  Force calculation #1
  Force calculation #2
  Force calculation #3
  Force calculation #4
  Force calculation #5
<MD= 1>  Total Energy
  Force calculation #6
  Force calculation #7

*******************************************************
                  Dipole moment (Debye)                 
*******************************************************

 Absolute D        4.33214959

                      Dx                Dy                Dz
 Total              4.33214959        0.00000001       -0.00000001
 Core             403.46937107        0.00000000        0.00000000
 Electron        -399.13722149        0.00000001       -0.00000001
 Back ground       -0.00000000        0.00000000       -0.00000000

*******************************************************
                Total Energy (Hartree) at MD = 1        
*******************************************************

  Uele  =      -1.870763783190

  Ukin  =       2.721618986473
  UH0   =      -4.491036531051
  UH1   =       0.012365174813
  Una   =      -2.604929261549
  Unl   =       0.356437890695
  Uxc0  =      -0.919188350781
  Uxc1  =      -0.919188350781
  Ucore =       2.116708996000
  Uhub  =       0.000000000000
  Ucs   =       0.000000000000
  Uzs   =       0.000000000000
  Uzo   =       0.000000000000
  Uef   =       0.000000000000
  UvdW  =       0.000000000000
  Uch   =       0.000000000000
  Utot  =      -3.727211446181

  UpV   =       0.000000000000
  Enpy  =      -3.727211446181
  Note:

  Uele:   band energy
  Ukin:   kinetic energy
  UH0:    electric part of screened Coulomb energy
  UH1:    difference electron-electron Coulomb energy
  Una:    neutral atom potential energy
  Unl:    non-local potential energy
  Uxc0:   exchange-correlation energy for alpha spin
  Uxc1:   exchange-correlation energy for beta spin
  Ucore:  core-core Coulomb energy
  Uhub:   LDA+U energy
  Ucs:    constraint energy for spin orientation
  Uzs:    Zeeman term for spin magnetic moment
  Uzo:    Zeeman term for orbital magnetic moment
  Uef:    electric energy by electric field
  UvdW:   semi-empirical vdW energy 
  Uch:    penalty term to create a core hole
  UpV:    pressure times volume
  Enpy:   Enthalpy = Utot + UpV
  (see also PRB 72, 045121(2005) for the energy contributions)


*******************************************************
           Computational times (s) at MD = 1            
*******************************************************

  DFT in total      =    2.14081

  Set_OLP_Kin       =    0.09599
  Set_Nonlocal      =    0.05936
  Set_ProExpn_VNA   =    0.20573
  Set_Hamiltonian   =    0.00974
  Poisson           =    0.01291
  diagonalization   =    0.73104
  Mixing_DM         =    0.00081
  Force             =    0.00576
  Total_Energy      =    0.19465
  Set_Aden_Grid     =    0.00847
  Set_Orbitals_Grid =    0.00071
  Set_Density_Grid  =    0.00499
  RestartFileDFT    =    0.30895
  Mulliken_Charge   =    0.05900
  FFT(2D)_Density   =    0.00000

The SCF was achieved at MD=   1

*******************************************************
             MD or geometry opt. at MD = 1              
*******************************************************


outputting data on grids to files...


***********************************************************
***********************************************************
               Computational Time (second)                 
***********************************************************
***********************************************************

                               Min_ID   Min_Time       Max_ID   Max_Time
   Total Computational Time =     1        5.776          0        5.954
   readfile                 =     3        2.427          2        2.427
   truncation               =     0        0.099          2        0.099
   MD_pac                   =     0        0.091          3        0.145
   OutData                  =     1        0.926          0        1.048
   DFT                      =     3        2.086          0        2.141

*** In DFT ***

   Set_OLP_Kin              =     0        0.096          3        0.097
   Set_Nonlocal             =     3        0.059          0        0.059
   Set_ProExpn_VNA          =     0        0.206          1        0.209
   Set_Hamiltonian          =     0        0.010          3        0.010
   Poisson                  =     0        0.013          2        0.013
   Diagonalization          =     2        0.731          1        0.731
   Mixing_DM                =     0        0.001          2        0.001
   Force                    =     0        0.006          1        0.006
   Total_Energy             =     2        0.140          0        0.195
   Set_Aden_Grid            =     2        0.006          3        0.009
   Set_Orbitals_Grid        =     0        0.001          1        0.001
   Set_Density_Grid         =     0        0.005          3        0.005
   RestartFileDFT           =     1        0.259          0        0.309
   Mulliken_Charge          =     0        0.059          3        0.059
   FFT(2D)_Density          =     0        0.000          0        0.000
   Others                   =     0        0.443          2        0.493

The calculation was normally finished.
method=openmx
N = 8
R = 3.0
dir_output = /home/yerin/qdft/hchain/output/N8/openmx_R3.00

run_openmx Done: 0m 7s


# Time Start   : Wed Mar  5 16:30:28 KST 2025
# Time End     : Wed Mar  5 16:36:26 KST 2025
# Time Elapsed : 0h 5m 57.497165275s

