   8   8   0   0
  0.1800000E+03  0.1500000E-08  0.1500000E-08  0.6400000E-09  0.5000000E-15
  1.000000000000000E-004
  CAR 
 unknown system                          
      2.91879288    -17.64691327  301     -1.05722013      1.00000000
    -17.647  0.0000E+00  0.0000E+00  0.0000E+00  0.0000E+00
    -17.578  0.0000E+00  0.0000E+00  0.0000E+00  0.0000E+00
    -17.510  0.0000E+00  0.0000E+00  0.0000E+00  0.0000E+00
    -17.441  0.0000E+00  0.0000E+00  0.0000E+00  0.0000E+00
    -17.373  0.0000E+00  0.0000E+00  0.0000E+00  0.0000E+00
    -17.304  0.0000E+00  0.0000E+00  0.0000E+00  0.0000E+00
    -17.236  0.0000E+00  0.0000E+00  0.0000E+00  0.0000E+00
    -17.167  0.0000E+00  0.0000E+00  0.0000E+00  0.0000E+00
    -17.098  0.0000E+00  0.0000E+00  0.0000E+00  0.0000E+00
    -17.030  0.0000E+00  0.0000E+00  0.0000E+00  0.0000E+00
    -16.961  0.0000E+00  0.0000E+00  0.0000E+00  0.0000E+00
    -16.893  0.0000E+00  0.0000E+00  0.0000E+00  0.0000E+00
    -16.824  0.1620E-14  0.1620E-14  0.1110E-15  0.1110E-15
    -16.756  0.6316E-13  0.6316E-13  0.4441E-14  0.4441E-14
    -16.687  0.2703E-11  0.2703E-11  0.1897E-12  0.1897E-12
    -16.619  0.9019E-10  0.9019E-10  0.6373E-11  0.6373E-11
    -16.550  0.2386E-08  0.2386E-08  0.1699E-09  0.1699E-09
    -16.482  0.5004E-07  0.5004E-07  0.3600E-08  0.3600E-08
    -16.413  0.8323E-06  0.8323E-06  0.6066E-07  0.6066E-07
    -16.344  0.1098E-04  0.1098E-04  0.8135E-06  0.8135E-06
    -16.276  0.1149E-03  0.1149E-03  0.8693E-05  0.8693E-05
    -16.207  0.9545E-03  0.9545E-03  0.7413E-04  0.7413E-04
    -16.139  0.6291E-02  0.6291E-02  0.5054E-03  0.5054E-03
    -16.070  0.3291E-01  0.3291E-01  0.2761E-02  0.2761E-02
    -16.002  0.1366E+00  0.1366E+00  0.1213E-01  0.1213E-01
    -15.933  0.4504E+00  0.4504E+00  0.4300E-01  0.4300E-01
    -15.865  0.1179E+01  0.1179E+01  0.1238E+00  0.1238E+00
    -15.796  0.2450E+01  0.2450E+01  0.2918E+00  0.2918E+00
    -15.727  0.4044E+01  0.4044E+01  0.5690E+00  0.5690E+00
    -15.659  0.5302E+01  0.5302E+01  0.9325E+00  0.9325E+00
    -15.590  0.5519E+01  0.5519E+01  0.1311E+01  0.1311E+01
    -15.522  0.4564E+01  0.4564E+01  0.1624E+01  0.1624E+01
    -15.453  0.2997E+01  0.2997E+01  0.1829E+01  0.1829E+01
    -15.385  0.1563E+01  0.1563E+01  0.1936E+01  0.1936E+01
    -15.316  0.6472E+00  0.6472E+00  0.1981E+01  0.1981E+01
    -15.248  0.2128E+00  0.2128E+00  0.1995E+01  0.1995E+01
    -15.179  0.5556E-01  0.5556E-01  0.1999E+01  0.1999E+01
    -15.110  0.1152E-01  0.1152E-01  0.2000E+01  0.2000E+01
    -15.042  0.1894E-02  0.1894E-02  0.2000E+01  0.2000E+01
    -14.973  0.2473E-03  0.2473E-03  0.2000E+01  0.2000E+01
    -14.905  0.2562E-04  0.2562E-04  0.2000E+01  0.2000E+01
    -14.836  0.2106E-05  0.2106E-05  0.2000E+01  0.2000E+01
    -14.768  0.1373E-06  0.1373E-06  0.2000E+01  0.2000E+01
    -14.699  0.7097E-08  0.7097E-08  0.2000E+01  0.2000E+01
    -14.631  0.2910E-09  0.2910E-09  0.2000E+01  0.2000E+01
    -14.562  0.9458E-11  0.9458E-11  0.2000E+01  0.2000E+01
    -14.494  0.2429E-12  0.2429E-12  0.2000E+01  0.2000E+01
    -14.425  0.6478E-14  0.6478E-14  0.2000E+01  0.2000E+01
    -14.356  0.0000E+00  0.0000E+00  0.2000E+01  0.2000E+01
    -14.288  0.0000E+00  0.0000E+00  0.2000E+01  0.2000E+01
    -14.219  0.0000E+00  0.0000E+00  0.2000E+01  0.2000E+01
    -14.151  0.0000E+00  0.0000E+00  0.2000E+01  0.2000E+01
    -14.082  0.0000E+00  0.0000E+00  0.2000E+01  0.2000E+01
    -14.014  0.0000E+00  0.0000E+00  0.2000E+01  0.2000E+01
    -13.945  0.0000E+00  0.0000E+00  0.2000E+01  0.2000E+01
    -13.877  0.0000E+00  0.0000E+00  0.2000E+01  0.2000E+01
    -13.808  0.0000E+00  0.0000E+00  0.2000E+01  0.2000E+01
    -13.739  0.0000E+00  0.0000E+00  0.2000E+01  0.2000E+01
    -13.671  0.0000E+00  0.0000E+00  0.2000E+01  0.2000E+01
    -13.602  0.0000E+00  0.0000E+00  0.2000E+01  0.2000E+01
    -13.534  0.0000E+00  0.0000E+00  0.2000E+01  0.2000E+01
    -13.465  0.0000E+00  0.0000E+00  0.2000E+01  0.2000E+01
    -13.397  0.0000E+00  0.0000E+00  0.2000E+01  0.2000E+01
    -13.328  0.0000E+00  0.0000E+00  0.2000E+01  0.2000E+01
    -13.260  0.0000E+00  0.0000E+00  0.2000E+01  0.2000E+01
    -13.191  0.0000E+00  0.0000E+00  0.2000E+01  0.2000E+01
    -13.122  0.2591E-13  0.2591E-13  0.2000E+01  0.2000E+01
    -13.054  0.1250E-11  0.1250E-11  0.2000E+01  0.2000E+01
    -12.985  0.4571E-10  0.4571E-10  0.2000E+01  0.2000E+01
    -12.917  0.1327E-08  0.1327E-08  0.2000E+01  0.2000E+01
    -12.848  0.3053E-07  0.3053E-07  0.2000E+01  0.2000E+01
    -12.780  0.5570E-06  0.5570E-06  0.2000E+01  0.2000E+01
    -12.711  0.8061E-05  0.8061E-05  0.2000E+01  0.2000E+01
    -12.643  0.9254E-04  0.9254E-04  0.2000E+01  0.2000E+01
    -12.574  0.8429E-03  0.8429E-03  0.2000E+01  0.2000E+01
    -12.505  0.6092E-02  0.6092E-02  0.2000E+01  0.2000E+01
    -12.437  0.3495E-01  0.3495E-01  0.2003E+01  0.2003E+01
    -12.368  0.1591E+00  0.1591E+00  0.2014E+01  0.2014E+01
    -12.300  0.5752E+00  0.5752E+00  0.2053E+01  0.2053E+01
    -12.231  0.1651E+01  0.1651E+01  0.2166E+01  0.2166E+01
    -12.163  0.3762E+01  0.3762E+01  0.2424E+01  0.2424E+01
    -12.094  0.6807E+01  0.6807E+01  0.2891E+01  0.2891E+01
    -12.026  0.9784E+01  0.9784E+01  0.3562E+01  0.3562E+01
    -11.957  0.1117E+02  0.1117E+02  0.4327E+01  0.4327E+01
    -11.889  0.1012E+02  0.1012E+02  0.5021E+01  0.5021E+01
    -11.820  0.7288E+01  0.7288E+01  0.5521E+01  0.5521E+01
    -11.751  0.4167E+01  0.4167E+01  0.5806E+01  0.5806E+01
    -11.683  0.1892E+01  0.1892E+01  0.5936E+01  0.5936E+01
    -11.614  0.6823E+00  0.6823E+00  0.5983E+01  0.5983E+01
    -11.546  0.1953E+00  0.1953E+00  0.5996E+01  0.5996E+01
    -11.477  0.4439E-01  0.4439E-01  0.5999E+01  0.5999E+01
    -11.409  0.8008E-02  0.8008E-02  0.6000E+01  0.6000E+01
    -11.340  0.1147E-02  0.1147E-02  0.6000E+01  0.6000E+01
    -11.272  0.1303E-03  0.1303E-03  0.6000E+01  0.6000E+01
    -11.203  0.1174E-04  0.1174E-04  0.6000E+01  0.6000E+01
    -11.134  0.8398E-06  0.8398E-06  0.6000E+01  0.6000E+01
    -11.066  0.4763E-07  0.4763E-07  0.6000E+01  0.6000E+01
    -10.997  0.2142E-08  0.2142E-08  0.6000E+01  0.6000E+01
    -10.929  0.7641E-10  0.7641E-10  0.6000E+01  0.6000E+01
    -10.860  0.2157E-11  0.2157E-11  0.6000E+01  0.6000E+01
    -10.792  0.5182E-13  0.5182E-13  0.6000E+01  0.6000E+01
    -10.723  0.0000E+00  0.0000E+00  0.6000E+01  0.6000E+01
    -10.655  0.0000E+00  0.0000E+00  0.6000E+01  0.6000E+01
    -10.586  0.0000E+00  0.0000E+00  0.6000E+01  0.6000E+01
    -10.517  0.0000E+00  0.0000E+00  0.6000E+01  0.6000E+01
    -10.449  0.0000E+00  0.0000E+00  0.6000E+01  0.6000E+01
    -10.380  0.0000E+00  0.0000E+00  0.6000E+01  0.6000E+01
    -10.312  0.0000E+00  0.0000E+00  0.6000E+01  0.6000E+01
    -10.243  0.0000E+00  0.0000E+00  0.6000E+01  0.6000E+01
    -10.175  0.0000E+00  0.0000E+00  0.6000E+01  0.6000E+01
    -10.106  0.0000E+00  0.0000E+00  0.6000E+01  0.6000E+01
    -10.038  0.0000E+00  0.0000E+00  0.6000E+01  0.6000E+01
     -9.969  0.0000E+00  0.0000E+00  0.6000E+01  0.6000E+01
     -9.900  0.0000E+00  0.0000E+00  0.6000E+01  0.6000E+01
     -9.832  0.0000E+00  0.0000E+00  0.6000E+01  0.6000E+01
     -9.763  0.0000E+00  0.0000E+00  0.6000E+01  0.6000E+01
     -9.695  0.0000E+00  0.0000E+00  0.6000E+01  0.6000E+01
     -9.626  0.0000E+00  0.0000E+00  0.6000E+01  0.6000E+01
     -9.558  0.0000E+00  0.0000E+00  0.6000E+01  0.6000E+01
     -9.489  0.0000E+00  0.0000E+00  0.6000E+01  0.6000E+01
     -9.421  0.0000E+00  0.0000E+00  0.6000E+01  0.6000E+01
     -9.352  0.0000E+00  0.0000E+00  0.6000E+01  0.6000E+01
     -9.284  0.0000E+00  0.0000E+00  0.6000E+01  0.6000E+01
     -9.215  0.0000E+00  0.0000E+00  0.6000E+01  0.6000E+01
     -9.146  0.0000E+00  0.0000E+00  0.6000E+01  0.6000E+01
     -9.078  0.0000E+00  0.0000E+00  0.6000E+01  0.6000E+01
     -9.009  0.0000E+00  0.0000E+00  0.6000E+01  0.6000E+01
     -8.941  0.0000E+00  0.0000E+00  0.6000E+01  0.6000E+01
     -8.872  0.0000E+00  0.0000E+00  0.6000E+01  0.6000E+01
     -8.804  0.0000E+00  0.0000E+00  0.6000E+01  0.6000E+01
     -8.735  0.0000E+00  0.0000E+00  0.6000E+01  0.6000E+01
     -8.667  0.0000E+00  0.0000E+00  0.6000E+01  0.6000E+01
     -8.598  0.0000E+00  0.0000E+00  0.6000E+01  0.6000E+01
     -8.529  0.0000E+00  0.0000E+00  0.6000E+01  0.6000E+01
     -8.461  0.0000E+00  0.0000E+00  0.6000E+01  0.6000E+01
     -8.392  0.0000E+00  0.0000E+00  0.6000E+01  0.6000E+01
     -8.324  0.0000E+00  0.0000E+00  0.6000E+01  0.6000E+01
     -8.255  0.0000E+00  0.0000E+00  0.6000E+01  0.6000E+01
     -8.187  0.0000E+00  0.0000E+00  0.6000E+01  0.6000E+01
     -8.118  0.0000E+00  0.0000E+00  0.6000E+01  0.6000E+01
     -8.050  0.0000E+00  0.0000E+00  0.6000E+01  0.6000E+01
     -7.981  0.0000E+00  0.0000E+00  0.6000E+01  0.6000E+01
     -7.912  0.0000E+00  0.0000E+00  0.6000E+01  0.6000E+01
     -7.844  0.0000E+00  0.0000E+00  0.6000E+01  0.6000E+01
     -7.775  0.0000E+00  0.0000E+00  0.6000E+01  0.6000E+01
     -7.707  0.0000E+00  0.0000E+00  0.6000E+01  0.6000E+01
     -7.638  0.0000E+00  0.0000E+00  0.6000E+01  0.6000E+01
     -7.570  0.0000E+00  0.0000E+00  0.6000E+01  0.6000E+01
     -7.501  0.0000E+00  0.0000E+00  0.6000E+01  0.6000E+01
     -7.433  0.0000E+00  0.0000E+00  0.6000E+01  0.6000E+01
     -7.364  0.0000E+00  0.0000E+00  0.6000E+01  0.6000E+01
     -7.296  0.0000E+00  0.0000E+00  0.6000E+01  0.6000E+01
     -7.227  0.0000E+00  0.0000E+00  0.6000E+01  0.6000E+01
     -7.158  0.0000E+00  0.0000E+00  0.6000E+01  0.6000E+01
     -7.090  0.0000E+00  0.0000E+00  0.6000E+01  0.6000E+01
     -7.021  0.0000E+00  0.0000E+00  0.6000E+01  0.6000E+01
     -6.953  0.0000E+00  0.0000E+00  0.6000E+01  0.6000E+01
     -6.884  0.0000E+00  0.0000E+00  0.6000E+01  0.6000E+01
     -6.816  0.0000E+00  0.0000E+00  0.6000E+01  0.6000E+01
     -6.747  0.0000E+00  0.0000E+00  0.6000E+01  0.6000E+01
     -6.679  0.0000E+00  0.0000E+00  0.6000E+01  0.6000E+01
     -6.610  0.0000E+00  0.0000E+00  0.6000E+01  0.6000E+01
     -6.541  0.0000E+00  0.0000E+00  0.6000E+01  0.6000E+01
     -6.473  0.0000E+00  0.0000E+00  0.6000E+01  0.6000E+01
     -6.404  0.0000E+00  0.0000E+00  0.6000E+01  0.6000E+01
     -6.336  0.0000E+00  0.0000E+00  0.6000E+01  0.6000E+01
     -6.267  0.0000E+00  0.0000E+00  0.6000E+01  0.6000E+01
     -6.199  0.0000E+00  0.0000E+00  0.6000E+01  0.6000E+01
     -6.130  0.0000E+00  0.0000E+00  0.6000E+01  0.6000E+01
     -6.062  0.0000E+00  0.0000E+00  0.6000E+01  0.6000E+01
     -5.993  0.0000E+00  0.0000E+00  0.6000E+01  0.6000E+01
     -5.924  0.0000E+00  0.0000E+00  0.6000E+01  0.6000E+01
     -5.856  0.0000E+00  0.0000E+00  0.6000E+01  0.6000E+01
     -5.787  0.0000E+00  0.0000E+00  0.6000E+01  0.6000E+01
     -5.719  0.0000E+00  0.0000E+00  0.6000E+01  0.6000E+01
     -5.650  0.0000E+00  0.0000E+00  0.6000E+01  0.6000E+01
     -5.582  0.0000E+00  0.0000E+00  0.6000E+01  0.6000E+01
     -5.513  0.0000E+00  0.0000E+00  0.6000E+01  0.6000E+01
     -5.445  0.0000E+00  0.0000E+00  0.6000E+01  0.6000E+01
     -5.376  0.0000E+00  0.0000E+00  0.6000E+01  0.6000E+01
     -5.307  0.0000E+00  0.0000E+00  0.6000E+01  0.6000E+01
     -5.239  0.0000E+00  0.0000E+00  0.6000E+01  0.6000E+01
     -5.170  0.0000E+00  0.0000E+00  0.6000E+01  0.6000E+01
     -5.102  0.0000E+00  0.0000E+00  0.6000E+01  0.6000E+01
     -5.033  0.0000E+00  0.0000E+00  0.6000E+01  0.6000E+01
     -4.965  0.0000E+00  0.0000E+00  0.6000E+01  0.6000E+01
     -4.896  0.0000E+00  0.0000E+00  0.6000E+01  0.6000E+01
     -4.828  0.0000E+00  0.0000E+00  0.6000E+01  0.6000E+01
     -4.759  0.0000E+00  0.0000E+00  0.6000E+01  0.6000E+01
     -4.691  0.0000E+00  0.0000E+00  0.6000E+01  0.6000E+01
     -4.622  0.0000E+00  0.0000E+00  0.6000E+01  0.6000E+01
     -4.553  0.0000E+00  0.0000E+00  0.6000E+01  0.6000E+01
     -4.485  0.0000E+00  0.0000E+00  0.6000E+01  0.6000E+01
     -4.416  0.0000E+00  0.0000E+00  0.6000E+01  0.6000E+01
     -4.348  0.0000E+00  0.0000E+00  0.6000E+01  0.6000E+01
     -4.279  0.0000E+00  0.0000E+00  0.6000E+01  0.6000E+01
     -4.211  0.0000E+00  0.0000E+00  0.6000E+01  0.6000E+01
     -4.142  0.0000E+00  0.0000E+00  0.6000E+01  0.6000E+01
     -4.074  0.0000E+00  0.0000E+00  0.6000E+01  0.6000E+01
     -4.005  0.0000E+00  0.0000E+00  0.6000E+01  0.6000E+01
     -3.936  0.0000E+00  0.0000E+00  0.6000E+01  0.6000E+01
     -3.868  0.0000E+00  0.0000E+00  0.6000E+01  0.6000E+01
     -3.799  0.0000E+00  0.0000E+00  0.6000E+01  0.6000E+01
     -3.731  0.0000E+00  0.0000E+00  0.6000E+01  0.6000E+01
     -3.662  0.0000E+00  0.0000E+00  0.6000E+01  0.6000E+01
     -3.594  0.0000E+00  0.0000E+00  0.6000E+01  0.6000E+01
     -3.525  0.0000E+00  0.0000E+00  0.6000E+01  0.6000E+01
     -3.457  0.0000E+00  0.0000E+00  0.6000E+01  0.6000E+01
     -3.388  0.0000E+00  0.0000E+00  0.6000E+01  0.6000E+01
     -3.319  0.0000E+00  0.0000E+00  0.6000E+01  0.6000E+01
     -3.251  0.0000E+00  0.0000E+00  0.6000E+01  0.6000E+01
     -3.182  0.0000E+00  0.0000E+00  0.6000E+01  0.6000E+01
     -3.114  0.0000E+00  0.0000E+00  0.6000E+01  0.6000E+01
     -3.045  0.0000E+00  0.0000E+00  0.6000E+01  0.6000E+01
     -2.977  0.0000E+00  0.0000E+00  0.6000E+01  0.6000E+01
     -2.908  0.0000E+00  0.0000E+00  0.6000E+01  0.6000E+01
     -2.840  0.0000E+00  0.0000E+00  0.6000E+01  0.6000E+01
     -2.771  0.0000E+00  0.0000E+00  0.6000E+01  0.6000E+01
     -2.703  0.0000E+00  0.0000E+00  0.6000E+01  0.6000E+01
     -2.634  0.0000E+00  0.0000E+00  0.6000E+01  0.6000E+01
     -2.565  0.0000E+00  0.0000E+00  0.6000E+01  0.6000E+01
     -2.497  0.0000E+00  0.0000E+00  0.6000E+01  0.6000E+01
     -2.428  0.0000E+00  0.0000E+00  0.6000E+01  0.6000E+01
     -2.360  0.0000E+00  0.0000E+00  0.6000E+01  0.6000E+01
     -2.291  0.0000E+00  0.0000E+00  0.6000E+01  0.6000E+01
     -2.223  0.6478E-14  0.6478E-14  0.6000E+01  0.6000E+01
     -2.154  0.2494E-12  0.2494E-12  0.6000E+01  0.6000E+01
     -2.086  0.1013E-10  0.1013E-10  0.6000E+01  0.6000E+01
     -2.017  0.3248E-09  0.3248E-09  0.6000E+01  0.6000E+01
     -1.948  0.8250E-08  0.8250E-08  0.6000E+01  0.6000E+01
     -1.880  0.1662E-06  0.1662E-06  0.6000E+01  0.6000E+01
     -1.811  0.2655E-05  0.2655E-05  0.6000E+01  0.6000E+01
     -1.743  0.3364E-04  0.3364E-04  0.6000E+01  0.6000E+01
     -1.674  0.3381E-03  0.3381E-03  0.6000E+01  0.6000E+01
     -1.606  0.2697E-02  0.2697E-02  0.6000E+01  0.6000E+01
     -1.537  0.1707E-01  0.1707E-01  0.6001E+01  0.6001E+01
     -1.469  0.8578E-01  0.8578E-01  0.6007E+01  0.6007E+01
     -1.400  0.3421E+00  0.3421E+00  0.6031E+01  0.6031E+01
     -1.331  0.1083E+01  0.1083E+01  0.6105E+01  0.6105E+01
     -1.263  0.2724E+01  0.2724E+01  0.6292E+01  0.6292E+01
     -1.194  0.5438E+01  0.5438E+01  0.6664E+01  0.6664E+01
     -1.126  0.8622E+01  0.8622E+01  0.7255E+01  0.7255E+01
     -1.057  0.1086E+02  0.1086E+02  0.8000E+01  0.8000E+01
     -0.989  0.1086E+02  0.1086E+02  0.8744E+01  0.8744E+01
     -0.920  0.8624E+01  0.8624E+01  0.9335E+01  0.9335E+01
     -0.852  0.5440E+01  0.5440E+01  0.9708E+01  0.9708E+01
     -0.783  0.2725E+01  0.2725E+01  0.9895E+01  0.9895E+01
     -0.714  0.1085E+01  0.1085E+01  0.9969E+01  0.9969E+01
     -0.646  0.3482E+00  0.3481E+00  0.9993E+01  0.9993E+01
     -0.577  0.1201E+00  0.1195E+00  0.1000E+02  0.1000E+02
     -0.509  0.1792E+00  0.1765E+00  0.1001E+02  0.1001E+02
     -0.440  0.6158E+00  0.6066E+00  0.1006E+02  0.1006E+02
     -0.372  0.1852E+01  0.1828E+01  0.1018E+02  0.1018E+02
     -0.303  0.4466E+01  0.4419E+01  0.1049E+02  0.1048E+02
     -0.235  0.8604E+01  0.8534E+01  0.1108E+02  0.1107E+02
     -0.166  0.1324E+02  0.1317E+02  0.1199E+02  0.1197E+02
     -0.098  0.1626E+02  0.1623E+02  0.1310E+02  0.1308E+02
     -0.029  0.1595E+02  0.1597E+02  0.1419E+02  0.1418E+02
      0.040  0.1249E+02  0.1255E+02  0.1505E+02  0.1504E+02
      0.108  0.7826E+01  0.7900E+01  0.1559E+02  0.1558E+02
      0.177  0.4025E+01  0.4084E+01  0.1586E+02  0.1586E+02
      0.245  0.2065E+01  0.2114E+01  0.1600E+02  0.1601E+02
      0.314  0.2019E+01  0.2079E+01  0.1614E+02  0.1615E+02
      0.382  0.3679E+01  0.3769E+01  0.1639E+02  0.1641E+02
      0.451  0.6595E+01  0.6706E+01  0.1685E+02  0.1687E+02
      0.519  0.9700E+01  0.9793E+01  0.1751E+02  0.1754E+02
      0.588  0.1157E+02  0.1161E+02  0.1830E+02  0.1833E+02
      0.657  0.1158E+02  0.1159E+02  0.1910E+02  0.1913E+02
      0.725  0.1067E+02  0.1071E+02  0.1983E+02  0.1986E+02
      0.794  0.1039E+02  0.1048E+02  0.2054E+02  0.2058E+02
      0.862  0.1116E+02  0.1126E+02  0.2131E+02  0.2135E+02
      0.931  0.1179E+02  0.1180E+02  0.2212E+02  0.2216E+02
      0.999  0.1082E+02  0.1071E+02  0.2286E+02  0.2290E+02
      1.068  0.8139E+01  0.7956E+01  0.2342E+02  0.2344E+02
      1.136  0.4910E+01  0.4736E+01  0.2375E+02  0.2377E+02
      1.205  0.2359E+01  0.2246E+01  0.2391E+02  0.2392E+02
      1.274  0.9010E+00  0.8464E+00  0.2398E+02  0.2398E+02
      1.342  0.2733E+00  0.2533E+00  0.2399E+02  0.2399E+02
      1.411  0.6581E-01  0.6020E-01  0.2400E+02  0.2400E+02
      1.479  0.1258E-01  0.1136E-01  0.2400E+02  0.2400E+02
      1.548  0.1909E-02  0.1700E-02  0.2400E+02  0.2400E+02
      1.616  0.2299E-03  0.2020E-03  0.2400E+02  0.2400E+02
      1.685  0.2196E-04  0.1905E-04  0.2400E+02  0.2400E+02
      1.753  0.1665E-05  0.1425E-05  0.2400E+02  0.2400E+02
      1.822  0.1001E-06  0.8451E-07  0.2400E+02  0.2400E+02
      1.891  0.4772E-08  0.3976E-08  0.2400E+02  0.2400E+02
      1.959  0.1804E-09  0.1483E-09  0.2400E+02  0.2400E+02
      2.028  0.5403E-11  0.4386E-11  0.2400E+02  0.2400E+02
      2.096  0.1296E-12  0.1036E-12  0.2400E+02  0.2400E+02
      2.165  0.0000E+00  0.0000E+00  0.2400E+02  0.2400E+02
      2.233  0.0000E+00  0.0000E+00  0.2400E+02  0.2400E+02
      2.302  0.0000E+00  0.0000E+00  0.2400E+02  0.2400E+02
      2.370  0.0000E+00  0.0000E+00  0.2400E+02  0.2400E+02
      2.439  0.0000E+00  0.0000E+00  0.2400E+02  0.2400E+02
      2.507  0.0000E+00  0.0000E+00  0.2400E+02  0.2400E+02
      2.576  0.0000E+00  0.0000E+00  0.2400E+02  0.2400E+02
      2.645  0.0000E+00  0.0000E+00  0.2400E+02  0.2400E+02
      2.713  0.0000E+00  0.0000E+00  0.2400E+02  0.2400E+02
      2.782  0.0000E+00  0.0000E+00  0.2400E+02  0.2400E+02
      2.850  0.0000E+00  0.0000E+00  0.2400E+02  0.2400E+02
      2.919  0.0000E+00  0.0000E+00  0.2400E+02  0.2400E+02
