    8    8    1    2
  0.1800000E+03  0.1500000E-08  0.1500000E-08  0.6400000E-09  0.5000000E-15
  1.000000000000000E-004
  CAR 
 unknown system                          
      8      1     12
 
  0.0000000E+00  0.0000000E+00  0.0000000E+00  0.1000000E+01
    1      -15.646913    -15.646913   1.000000   1.000000
    2      -11.986265    -11.986265   1.000000   1.000000
    3      -11.986265    -11.986265   1.000000   1.000000
    4       -1.057220     -1.057220   0.500000   0.500000
    5       -1.057220     -1.057220   0.500000   0.500000
    6       -0.133702     -0.133422   0.000000   0.000000
    7       -0.088553     -0.087133   0.000000   0.000000
    8       -0.088553     -0.087133   0.000000   0.000000
    9        0.563420      0.560575   0.000000   0.000000
   10        0.565183      0.563489   0.000000   0.000000
   11        0.918793      0.914842   0.000000   0.000000
   12        0.918793      0.914842   0.000000   0.000000
