       N       E                     dE             d eps       ncg     rms          rms(c)
DAV:   1    -0.981764842387E+00   -0.98176E+00   -0.15941E+03    72   0.185E+02
DAV:   2    -0.186722118923E+02   -0.17690E+02   -0.17484E+02    56   0.648E+01
DAV:   3    -0.191184892127E+02   -0.44628E+00   -0.43002E+00    76   0.110E+01
DAV:   4    -0.193228752391E+02   -0.20439E+00   -0.43468E-01    56   0.980E-01
DAV:   5    -0.193301304349E+02   -0.72552E-02   -0.71666E-02    48   0.470E-01    0.861E+00
DAV:   6    -0.174831372304E+02    0.18470E+01   -0.55634E-01    48   0.330E+00    0.500E+00
DAV:   7    -0.162379835832E+02    0.12452E+01   -0.16117E+00    56   0.554E+00    0.628E-01
DAV:   8    -0.162196096912E+02    0.18374E-01   -0.10354E-02    48   0.617E-01    0.292E-01
DAV:   9    -0.162073194737E+02    0.12290E-01   -0.78901E-03    56   0.399E-01    0.946E-02
DAV:  10    -0.162162517385E+02   -0.89323E-02   -0.41000E-03    52   0.268E-01    0.487E-02
DAV:  11    -0.162195449319E+02   -0.32932E-02   -0.27649E-04    52   0.857E-02    0.348E-02
DAV:  12    -0.162272082196E+02   -0.76633E-02   -0.12134E-03    56   0.171E-01    0.213E-02
DAV:  13    -0.162288723539E+02   -0.16641E-02   -0.27844E-04    48   0.760E-02    0.136E-02
DAV:  14    -0.162294762249E+02   -0.60387E-03   -0.11539E-05    48   0.172E-02    0.797E-03
DAV:  15    -0.162303659095E+02   -0.88968E-03   -0.27625E-05    48   0.277E-02    0.331E-03
DAV:  16    -0.162304280395E+02   -0.62130E-04   -0.93908E-07    48   0.661E-03    0.239E-03
DAV:  17    -0.162305549475E+02   -0.12691E-03   -0.21386E-06    48   0.696E-03    0.632E-04
DAV:  18    -0.162305715056E+02   -0.16558E-04   -0.28327E-07    48   0.316E-03    0.442E-04
DAV:  19    -0.162305789776E+02   -0.74720E-05   -0.70209E-08    48   0.173E-03    0.226E-04
DAV:  20    -0.162305856191E+02   -0.66415E-05   -0.94306E-08    48   0.196E-03    0.129E-04
DAV:  21    -0.162305873526E+02   -0.17335E-05   -0.19627E-08    48   0.794E-04    0.964E-05
DAV:  22    -0.162305894848E+02   -0.21323E-05   -0.19981E-08    52   0.831E-04    0.405E-05
DAV:  23    -0.162305903038E+02   -0.81895E-06   -0.69948E-09    52   0.518E-04
   1 F= -.16230590E+02 E0= -.16117752E+02  d E =-.225676E+00  mag=     0.0000
