 vasp.5.4.4.18Apr17-6-g9f103f2a35 (build Aug 24 2024 05:40:03) complex          
  
 executed on           IFC22_IMPI date 2024.11.22  21:38:43
 running on    4 total cores
 distrk:  each k-point on    4 cores,    1 groups
 distr:  one band on NCORES_PER_BAND=   1 cores,    4 groups


--------------------------------------------------------------------------------------------------------


 INCAR:
 POTCAR:    PAW_PBE H 15Jun2001                   
 POTCAR:    PAW_PBE H 15Jun2001                   
   VRHFIN =H: ultrasoft test                                                    
   LEXCH  = PE                                                                  
   EATOM  =    12.4884 eV,    0.9179 Ry                                         
                                                                                
   TITEL  = PAW_PBE H 15Jun2001                                                 
   LULTRA =        F    use ultrasoft PP ?                                      
   IUNSCR =        0    unscreen: 0-lin 1-nonlin 2-no                           
   RPACOR =    0.000    partial core radius                                     
   POMASS =    1.000; ZVAL   =    1.000    mass and valenz                      
   RCORE  =    1.100    outmost cutoff radius                                   
   RWIGS  =    0.700; RWIGS  =    0.370    wigner-seitz radius (au A)           
   ENMAX  =  250.000; ENMIN  =  200.000 eV                                      
   RCLOC  =    0.701    cutoff for local pot                                    
   LCOR   =        T    correct aug charges                                     
   LPAW   =        T    paw PP                                                  
   EAUG   =  400.000                                                            
   RMAX   =    1.123    core radius for proj-oper                               
   RAUG   =    1.200    factor for augmentation sphere                          
   RDEP   =    1.112    radius for radial grids                                 
   RDEPT  =    0.926    core radius for aug-charge                              
                                                                                
   Atomic configuration                                                         
    2 entries                                                                   
     n  l   j            E        occ.                                          
     1  0  0.50        -6.4927   1.0000                                         
     2  1  0.50        -3.4015   0.0000                                         
   Description                                                                  
     l       E           TYP  RCUT    TYP  RCUT                                 
     0     -6.4927494     23  1.100                                             
     0      6.8029130     23  1.100                                             
     1     -4.0817478     23  1.100                                             
  local pseudopotential read in
  atomic valenz-charges read in
  non local Contribution for L=           0  read in
    real space projection operators read in
  non local Contribution for L=           0  read in
    real space projection operators read in
  non local Contribution for L=           1  read in
    real space projection operators read in
    PAW grid and wavefunctions read in
 
   number of l-projection  operators is LMAX  =           3
   number of lm-projection operators is LMMAX =           5
 
  PAW_PBE H 15Jun2001                   :
 energy of atom  1       EATOM=  -12.4884
 kinetic energy error for atom=    0.0426 (will be added to EATOM!!)
 
 
 POSCAR: H8                                      
  positions in direct lattice
  No initial velocities read in
 exchange correlation table for  LEXCH =        8
   RHO(1)=    0.500       N(1)  =     2000
   RHO(2)=  100.500       N(2)  =     4000
 


--------------------------------------------------------------------------------------------------------


 ion  position               nearest neighbor table
   1  0.000  0.000  0.000-   2 0.80   8 0.80
   2  0.000  0.000  0.125-   1 0.80   3 0.80
   3  0.000  0.000  0.250-   2 0.80   4 0.80
   4  0.000  0.000  0.375-   3 0.80   5 0.80
   5  0.000  0.000  0.500-   4 0.80   6 0.80
   6  0.000  0.000  0.625-   5 0.80   7 0.80
   7  0.000  0.000  0.750-   6 0.80   8 0.80
   8  0.000  0.000  0.875-   1 0.80   7 0.80
 
  LATTYP: Found a simple tetragonal cell.
 ALAT       =    15.0000000000
 C/A-ratio  =     0.4266666667
  
  Lattice vectors:
  
 A1 = (  15.0000000000,   0.0000000000,   0.0000000000)
 A2 = (   0.0000000000,  15.0000000000,   0.0000000000)
 A3 = (   0.0000000000,   0.0000000000,   6.4000000000)


Analysis of symmetry for initial positions (statically):
=====================================================================
 Subroutine PRICEL returns following result:
 
  LATTYP: Found a simple tetragonal cell.
 ALAT       =    15.0000000000
 C/A-ratio  =     0.0533333333
  
  Lattice vectors:
  
 A1 = (  15.0000000000,   0.0000000000,   0.0000000000)
 A2 = (   0.0000000000,  15.0000000000,   0.0000000000)
 A3 = (   0.0000000000,   0.0000000000,   0.8000000000)
 
   8 primitive cells build up your supercell.
 

 Routine SETGRP: Setting up the symmetry group for a 
 simple tetragonal supercell.


 Subroutine GETGRP returns: Found 16 space group operations
 (whereof 16 operations were pure point group operations)
 out of a pool of 16 trial point group operations.


The static configuration has the point symmetry D_4h.


Analysis of symmetry for dynamics (positions and initial velocities):
=====================================================================
 Subroutine PRICEL returns following result:
 
  LATTYP: Found a simple tetragonal cell.
 ALAT       =    15.0000000000
 C/A-ratio  =     0.0533333333
  
  Lattice vectors:
  
 A1 = (  15.0000000000,   0.0000000000,   0.0000000000)
 A2 = (   0.0000000000,  15.0000000000,   0.0000000000)
 A3 = (   0.0000000000,   0.0000000000,   0.8000000000)
 
   8 primitive cells build up your supercell.
 

 Routine SETGRP: Setting up the symmetry group for a 
 simple tetragonal supercell.


 Subroutine GETGRP returns: Found 16 space group operations
 (whereof 16 operations were pure point group operations)
 out of a pool of 16 trial point group operations.


The dynamic configuration has the point symmetry D_4h.


Analysis of structural, dynamic, and magnetic symmetry:
=====================================================================
 Subroutine PRICEL returns following result:
 
  LATTYP: Found a simple tetragonal cell.
 ALAT       =    15.0000000000
 C/A-ratio  =     0.0533333333
  
  Lattice vectors:
  
 A1 = (  15.0000000000,   0.0000000000,   0.0000000000)
 A2 = (   0.0000000000,  15.0000000000,   0.0000000000)
 A3 = (   0.0000000000,   0.0000000000,   0.8000000000)
 
   8 primitive cells build up your supercell.
 

 Routine SETGRP: Setting up the symmetry group for a 
 simple tetragonal supercell.


 Subroutine GETGRP returns: Found 16 space group operations
 (whereof 16 operations were pure point group operations)
 out of a pool of 16 trial point group operations.


The magnetic configuration has the point symmetry D_4h.


 Subroutine INISYM returns: Found 16 space group operations
 (whereof 16 operations are pure point group operations),
 and found     8 'primitive' translations

 
 
 KPOINTS: Automatic kpoint scheme                 

Automatic generation of k-mesh.
Space group operators:
 irot       det(A)        alpha          n_x          n_y          n_z        tau_x        tau_y        tau_z
    1     1.000000     0.000000     1.000000     0.000000     0.000000     0.000000     0.000000     0.000000
    2    -1.000000     0.000000     1.000000     0.000000     0.000000     0.000000     0.000000     0.000000
    3     1.000000    90.000000     0.000000    -0.000000    -1.000000     0.000000     0.000000     0.000000
    4    -1.000000    90.000000     0.000000    -0.000000    -1.000000     0.000000     0.000000     0.000000
    5     1.000000   180.000000    -0.000000    -0.000000     1.000000     0.000000     0.000000     0.000000
    6    -1.000000   180.000000    -0.000000    -0.000000     1.000000     0.000000     0.000000     0.000000
    7     1.000000    90.000000    -0.000000    -0.000000     1.000000     0.000000     0.000000     0.000000
    8    -1.000000    90.000000    -0.000000    -0.000000     1.000000     0.000000     0.000000     0.000000
    9     1.000000   180.000000     0.000000     1.000000     0.000000     0.000000     0.000000     0.000000
   10    -1.000000   180.000000     0.000000     1.000000     0.000000     0.000000     0.000000     0.000000
   11     1.000000   180.000000     0.707107     0.707107     0.000000     0.000000     0.000000     0.000000
   12    -1.000000   180.000000     0.707107     0.707107     0.000000     0.000000     0.000000     0.000000
   13     1.000000   180.000000     1.000000    -0.000000     0.000000     0.000000     0.000000     0.000000
   14    -1.000000   180.000000     1.000000    -0.000000     0.000000     0.000000     0.000000     0.000000
   15     1.000000   180.000000     0.707107    -0.707107     0.000000     0.000000     0.000000     0.000000
   16    -1.000000   180.000000     0.707107    -0.707107     0.000000     0.000000     0.000000     0.000000
 
 Subroutine IBZKPT returns following result:
 ===========================================
 
 Found      1 irreducible k-points:
 
 Following reciprocal coordinates:
            Coordinates               Weight
  0.000000  0.000000  0.000000      1.000000
 
 Following cartesian coordinates:
            Coordinates               Weight
  0.000000  0.000000  0.000000      1.000000
 


--------------------------------------------------------------------------------------------------------




 Dimension of arrays:
   k-points           NKPTS =      1   k-points in BZ     NKDIM =      1   number of bands    NBANDS=     12
   number of dos      NEDOS =    301   number of ions     NIONS =      8
   non local maximal  LDIM  =      3   non local SUM 2l+1 LMDIM =      5
   total plane-waves  NPLWV = 114688
   max r-space proj   IRMAX =      1   max aug-charges    IRDMAX=    587
   dimension x,y,z NGX =    64 NGY =   64 NGZ =   28
   dimension x,y,z NGXF=   128 NGYF=  128 NGZF=   56
   support grid    NGXF=   128 NGYF=  128 NGZF=   56
   ions per type =               8
   NGX,Y,Z   is equivalent  to a cutoff of   7.09,  7.09,  7.27 a.u.
   NGXF,Y,Z  is equivalent  to a cutoff of  14.19, 14.19, 14.55 a.u.

 SYSTEM =  unknown system                          
 POSCAR =  H8                                      

 Startparameter for this run:
   NWRITE =      2    write-flag & timer
   PREC   = normal    normal or accurate (medium, high low for compatibility)
   ISTART =      0    job   : 0-new  1-cont  2-samecut
   ICHARG =      2    charge: 1-file 2-atom 10-const
   ISPIN  =      2    spin polarized calculation?
   LNONCOLLINEAR =      F non collinear calculations
   LSORBIT =      F    spin-orbit coupling
   INIWAV =      1    electr: 0-lowe 1-rand  2-diag
   LASPH  =      F    aspherical Exc in radial PAW
   METAGGA=      F    non-selfconsistent MetaGGA calc.

 Electronic Relaxation 1
   ENCUT  =  300.0 eV  22.05 Ry    4.70 a.u.  21.18 21.18  9.04*2*pi/ulx,y,z
   ENINI  =  300.0     initial cutoff
   ENAUG  =  400.0 eV  augmentation charge cutoff
   NELM   =    100;   NELMIN=  2; NELMDL= -5     # of ELM steps 
   EDIFF  = 0.1E-05   stopping-criterion for ELM
   LREAL  =      F    real-space projection
   NLSPLINE    = F    spline interpolate recip. space projectors
   LCOMPAT=      F    compatible to vasp.4.4
   GGA_COMPAT  = T    GGA compatible to vasp.4.4-vasp.4.6
   LMAXPAW     = -100 max onsite density
   LMAXMIX     =    2 max onsite mixed and CHGCAR
   VOSKOWN=      0    Vosko Wilk Nusair interpolation
   ROPT   =    0.00000
 Ionic relaxation
   EDIFFG = 0.1E-04   stopping-criterion for IOM
   NSW    =      0    number of steps for IOM
   NBLOCK =      1;   KBLOCK =      1    inner block; outer block 
   IBRION =     -1    ionic relax: 0-MD 1-quasi-New 2-CG
   NFREE  =      0    steps in history (QN), initial steepest desc. (CG)
   ISIF   =      2    stress and relaxation
   IWAVPR =     10    prediction:  0-non 1-charg 2-wave 3-comb
   ISYM   =      2    0-nonsym 1-usesym 2-fastsym
   LCORR  =      T    Harris-Foulkes like correction to forces

   POTIM  = 0.5000    time-step for ionic-motion
   TEIN   =    0.0    initial temperature
   TEBEG  =    0.0;   TEEND  =   0.0 temperature during run
   SMASS  =  -3.00    Nose mass-parameter (am)
   estimated Nose-frequenzy (Omega)   =  0.10E-29 period in steps =****** mass=  -0.514E-26a.u.
   SCALEE = 1.0000    scale energy and forces
   NPACO  =    256;   APACO  = 16.0  distance and # of slots for P.C.
   PSTRESS=    0.0 pullay stress

  Mass of Ions in am
   POMASS =   1.00
  Ionic Valenz
   ZVAL   =   1.00
  Atomic Wigner-Seitz radii
   RWIGS  =  -1.00
  virtual crystal weights 
   VCA    =   1.00
   NELECT =       8.0000    total number of electrons
   NUPDOWN=       0.0000    fix difference up-down

 DOS related values:
   EMIN   =  10.00;   EMAX   =-10.00  energy-range for DOS
   EFERMI =   0.00
   ISMEAR =     0;   SIGMA  =   0.20  broadening in eV -4-tet -1-fermi 0-gaus

 Electronic relaxation 2 (details)
   IALGO  =     38    algorithm
   LDIAG  =      T    sub-space diagonalisation (order eigenvalues)
   LSUBROT=      F    optimize rotation matrix (better conditioning)
   TURBO    =      0    0=normal 1=particle mesh
   IRESTART =      0    0=no restart 2=restart with 2 vectors
   NREBOOT  =      0    no. of reboots
   NMIN     =      0    reboot dimension
   EREF     =   0.00    reference energy to select bands
   IMIX   =      4    mixing-type and parameters
     AMIX     =   0.40;   BMIX     =  1.00
     AMIX_MAG =   1.60;   BMIX_MAG =  1.00
     AMIN     =   0.10
     WC   =   100.;   INIMIX=   1;  MIXPRE=   1;  MAXMIX= -45

 Intra band minimization:
   WEIMIN = 0.0000     energy-eigenvalue tresh-hold
   EBREAK =  0.21E-07  absolut break condition
   DEPER  =   0.30     relativ break condition  

   TIME   =   0.40     timestep for ELM

  volume/ion in A,a.u.               =     180.00      1214.70
  Fermi-wavevector in a.u.,A,eV,Ry     =   0.289946  0.547919  1.143825  0.084069
  Thomas-Fermi vector in A             =   1.148187
 
 Write flags
   LWAVE        =      F    write WAVECAR
   LDOWNSAMPLE  =      F    k-point downsampling of WAVECAR
   LCHARG       =      F    write CHGCAR
   LVTOT        =      F    write LOCPOT, total local potential
   LVHAR        =      F    write LOCPOT, Hartree potential only
   LELF         =      F    write electronic localiz. function (ELF)
   LORBIT       =      0    0 simple, 1 ext, 2 COOP (PROOUT), +10 PAW based schemes


 Dipole corrections
   LMONO  =      F    monopole corrections only (constant potential shift)
   LDIPOL =      F    correct potential (dipole corrections)
   IDIPOL =      0    1-x, 2-y, 3-z, 4-all directions 
   EPSILON=  1.0000000 bulk dielectric constant

 Exchange correlation treatment:
   GGA     =    --    GGA type
   LEXCH   =     8    internal setting for exchange type
   VOSKOWN=      0    Vosko Wilk Nusair interpolation
   LHFCALC =     F    Hartree Fock is set to
   LHFONE  =     F    Hartree Fock one center treatment
   AEXX    =    0.0000 exact exchange contribution

 Linear response parameters
   LEPSILON=     F    determine dielectric tensor
   LRPA    =     F    only Hartree local field effects (RPA)
   LNABLA  =     F    use nabla operator in PAW spheres
   LVEL    =     F    velocity operator in full k-point grid
   LINTERFAST=   F  fast interpolation
   KINTER  =     0    interpolate to denser k-point grid
   CSHIFT  =0.1000    complex shift for real part using Kramers Kronig
   OMEGAMAX=  -1.0    maximum frequency
   DEG_THRESHOLD= 0.2000000E-02 threshold for treating states as degnerate
   RTIME   =   -0.100 relaxation time in fs
  (WPLASMAI=    0.000 imaginary part of plasma frequency in eV, 0.658/RTIME)
   DFIELD  = 0.0000000 0.0000000 0.0000000 field for delta impulse in time
 
 Orbital magnetization related:
   ORBITALMAG=     F  switch on orbital magnetization
   LCHIMAG   =     F  perturbation theory with respect to B field
   DQ        =  0.001000  dq finite difference perturbation B field
   LLRAUG    =     F  two centre corrections for induced B field



--------------------------------------------------------------------------------------------------------


 Static calculation
 charge density and potential will be updated during run
 spin polarized calculation
 Variant of blocked Davidson
 Davidson routine will perform the subspace rotation
 perform sub-space diagonalisation
    after iterative eigenvector-optimisation
 modified Broyden-mixing scheme, WC =      100.0
 initial mixing is a Kerker type mixing with AMIX =  0.4000 and BMIX =      1.0000
 Hartree-type preconditioning will be used
 using additional bands            8
 reciprocal scheme for non local part
 calculate Harris-corrections to forces 
   (improved forces if not selfconsistent)
 use gradient corrections 
 use of overlap-Matrix (Vanderbilt PP)
 Gauss-broadening in eV      SIGMA  =   0.20


--------------------------------------------------------------------------------------------------------


  energy-cutoff  :      300.00
  volume of cell :     1440.00
      direct lattice vectors                 reciprocal lattice vectors
    15.000000000  0.000000000  0.000000000     0.066666667 -0.000000000  0.000000000
     0.000000000 15.000000000  0.000000000     0.000000000  0.066666667  0.000000000
     0.000000000  0.000000000  6.400000000    -0.000000000 -0.000000000  0.156250000

  length of vectors
    15.000000000 15.000000000  6.400000000     0.066666667  0.066666667  0.156250000


 
 k-points in units of 2pi/SCALE and weight: Automatic kpoint scheme                 
   0.00000000  0.00000000  0.00000000       1.000
 
 k-points in reciprocal lattice and weights: Automatic kpoint scheme                 
   0.00000000  0.00000000  0.00000000       1.000
 
 position of ions in fractional coordinates (direct lattice) 
   0.00000000  0.00000000  0.00000000
   0.00000000  0.00000000  0.12500000
   0.00000000  0.00000000  0.25000000
   0.00000000  0.00000000  0.37500000
   0.00000000  0.00000000  0.50000000
   0.00000000  0.00000000  0.62500000
   0.00000000  0.00000000  0.75000000
   0.00000000  0.00000000  0.87500000
 
 position of ions in cartesian coordinates  (Angst):
   0.00000000  0.00000000  0.00000000
   0.00000000  0.00000000  0.80000000
   0.00000000  0.00000000  1.60000000
   0.00000000  0.00000000  2.40000000
   0.00000000  0.00000000  3.20000000
   0.00000000  0.00000000  4.00000000
   0.00000000  0.00000000  4.80000000
   0.00000000  0.00000000  5.60000000
 


--------------------------------------------------------------------------------------------------------


 k-point  1 :   0.0000 0.0000 0.0000  plane waves:   16903

 maximum and minimum number of plane-waves per node :     16903    16903

 maximum number of plane-waves:     16903
 maximum index in each direction: 
   IXMAX=   21   IYMAX=   21   IZMAX=    9
   IXMIN=  -21   IYMIN=  -21   IZMIN=   -9


 serial   3D FFT for wavefunctions
 parallel 3D FFT for charge:
    minimum data exchange during FFTs selected (reduces bandwidth)


 total amount of memory used by VASP MPI-rank0    69223. kBytes
=======================================================================

   base      :      30000. kBytes
   nonl-proj :       2839. kBytes
   fftplans  :       8460. kBytes
   grid      :      26279. kBytes
   one-center:         19. kBytes
   wavefun   :       1626. kBytes
 
     INWAV:  cpu time    0.0000: real time    0.0000
 Broyden mixing: mesh for mixing (old mesh)
   NGX = 43   NGY = 43   NGZ = 19
  (NGX  =128   NGY  =128   NGZ  = 56)
  gives a total of  35131 points

 initial charge density was supplied:
 charge density of overlapping atoms calculated
 number of electron       8.0000000 magnetization       0.0000000
 keeping initial charge density in first step


--------------------------------------------------------------------------------------------------------


 Maximum index for augmentation-charges           83 (set IRDMAX)


--------------------------------------------------------------------------------------------------------


 First call to EWALD:  gamma=   0.157
 Maximum number of real-space cells 2x 2x 4
 Maximum number of reciprocal cells 3x 3x 2

    FEWALD:  cpu time    0.0016: real time    0.0016


--------------------------------------- Iteration      1(   1)  ---------------------------------------


    POTLOK:  cpu time    0.3136: real time    0.3135
    SETDIJ:  cpu time    0.0096: real time    0.0096
     EDDAV:  cpu time    0.2286: real time    0.2286
       DOS:  cpu time    0.0003: real time    0.0003
    --------------------------------------------
      LOOP:  cpu time    0.5520: real time    0.5520

 eigenvalue-minimisations  :    72
 total energy-change (2. order) :-0.9817648E+00  (-0.1594056E+03)
 number of electron       8.0000000 magnetization       0.0000000
 augmentation part        8.0000000 magnetization       0.0000000

 Free energy of the ion-electron system (eV)
  ---------------------------------------------------
  alpha Z        PSCENC =         0.10827411
  Ewald energy   TEWEN  =       216.67781545
  -Hartree energ DENC   =      -233.21899237
  -exchange      EXHF   =         0.00000000
  -V(xc)+E(xc)   XCENC  =        20.08621788
  PAW double counting   =        17.07221949      -17.14324176
  entropy T*S    EENTRO =        -0.01912047
  eigenvalues    EBANDS =      -104.11114023
  atomic energy  EATOM  =        99.56620307
  Solvation  Ediel_sol  =         0.00000000
  ---------------------------------------------------
  free energy    TOTEN  =        -0.98176484 eV

  energy without entropy =       -0.96264437  energy(sigma->0) =       -0.97220461


--------------------------------------------------------------------------------------------------------




--------------------------------------- Iteration      1(   2)  ---------------------------------------


     EDDAV:  cpu time    0.1838: real time    0.1838
       DOS:  cpu time    0.0002: real time    0.0002
    --------------------------------------------
      LOOP:  cpu time    0.1840: real time    0.1840

 eigenvalue-minimisations  :    56
 total energy-change (2. order) :-0.1769045E+02  (-0.1748386E+02)
 number of electron       8.0000000 magnetization       0.0000000
 augmentation part        8.0000000 magnetization       0.0000000

 Free energy of the ion-electron system (eV)
  ---------------------------------------------------
  alpha Z        PSCENC =         0.10827411
  Ewald energy   TEWEN  =       216.67781545
  -Hartree energ DENC   =      -233.21899237
  -exchange      EXHF   =         0.00000000
  -V(xc)+E(xc)   XCENC  =        20.08621788
  PAW double counting   =        17.07221949      -17.14324176
  entropy T*S    EENTRO =        -0.00000000
  eigenvalues    EBANDS =      -121.82070776
  atomic energy  EATOM  =        99.56620307
  Solvation  Ediel_sol  =         0.00000000
  ---------------------------------------------------
  free energy    TOTEN  =       -18.67221189 eV

  energy without entropy =      -18.67221189  energy(sigma->0) =      -18.67221189


--------------------------------------------------------------------------------------------------------




--------------------------------------- Iteration      1(   3)  ---------------------------------------


     EDDAV:  cpu time    0.2318: real time    0.2317
       DOS:  cpu time    0.0003: real time    0.0003
    --------------------------------------------
      LOOP:  cpu time    0.2320: real time    0.2320

 eigenvalue-minimisations  :    76
 total energy-change (2. order) :-0.4462773E+00  (-0.4300224E+00)
 number of electron       8.0000000 magnetization       0.0000000
 augmentation part        8.0000000 magnetization       0.0000000

 Free energy of the ion-electron system (eV)
  ---------------------------------------------------
  alpha Z        PSCENC =         0.10827411
  Ewald energy   TEWEN  =       216.67781545
  -Hartree energ DENC   =      -233.21899237
  -exchange      EXHF   =         0.00000000
  -V(xc)+E(xc)   XCENC  =        20.08621788
  PAW double counting   =        17.07221949      -17.14324176
  entropy T*S    EENTRO =        -0.05778728
  eigenvalues    EBANDS =      -122.20919780
  atomic energy  EATOM  =        99.56620307
  Solvation  Ediel_sol  =         0.00000000
  ---------------------------------------------------
  free energy    TOTEN  =       -19.11848921 eV

  energy without entropy =      -19.06070193  energy(sigma->0) =      -19.08959557


--------------------------------------------------------------------------------------------------------




--------------------------------------- Iteration      1(   4)  ---------------------------------------


     EDDAV:  cpu time    0.1833: real time    0.1833
       DOS:  cpu time    0.0003: real time    0.0003
    --------------------------------------------
      LOOP:  cpu time    0.1836: real time    0.1835

 eigenvalue-minimisations  :    56
 total energy-change (2. order) :-0.2043860E+00  (-0.4346825E-01)
 number of electron       8.0000000 magnetization       0.0000000
 augmentation part        8.0000000 magnetization       0.0000000

 Free energy of the ion-electron system (eV)
  ---------------------------------------------------
  alpha Z        PSCENC =         0.10827411
  Ewald energy   TEWEN  =       216.67781545
  -Hartree energ DENC   =      -233.21899237
  -exchange      EXHF   =         0.00000000
  -V(xc)+E(xc)   XCENC  =        20.08621788
  PAW double counting   =        17.07221949      -17.14324176
  entropy T*S    EENTRO =        -0.22557914
  eigenvalues    EBANDS =      -122.24579197
  atomic energy  EATOM  =        99.56620307
  Solvation  Ediel_sol  =         0.00000000
  ---------------------------------------------------
  free energy    TOTEN  =       -19.32287524 eV

  energy without entropy =      -19.09729610  energy(sigma->0) =      -19.21008567


--------------------------------------------------------------------------------------------------------




--------------------------------------- Iteration      1(   5)  ---------------------------------------


     EDDAV:  cpu time    0.1610: real time    0.1610
       DOS:  cpu time    0.0003: real time    0.0003
    CHARGE:  cpu time    0.0934: real time    0.0934
    MIXING:  cpu time    0.0066: real time    0.0066
    --------------------------------------------
      LOOP:  cpu time    0.2613: real time    0.2613

 eigenvalue-minimisations  :    48
 total energy-change (2. order) :-0.7255196E-02  (-0.7166603E-02)
 number of electron       8.0000103 magnetization      -0.0000000
 augmentation part        0.1930312 magnetization      -0.0000224

 Broyden mixing:
  rms(total) = 0.86116E+00    rms(broyden)= 0.86050E+00
  rms(prec ) = 0.98783E+00
  weight for this iteration     100.00

 Free energy of the ion-electron system (eV)
  ---------------------------------------------------
  alpha Z        PSCENC =         0.10827411
  Ewald energy   TEWEN  =       216.67781545
  -Hartree energ DENC   =      -233.21899237
  -exchange      EXHF   =         0.00000000
  -V(xc)+E(xc)   XCENC  =        20.08621788
  PAW double counting   =        17.07221949      -17.14324176
  entropy T*S    EENTRO =        -0.22567565
  eigenvalues    EBANDS =      -122.25295064
  atomic energy  EATOM  =        99.56620307
  Solvation  Ediel_sol  =         0.00000000
  ---------------------------------------------------
  free energy    TOTEN  =       -19.33013043 eV

  energy without entropy =      -19.10445478  energy(sigma->0) =      -19.21729261


--------------------------------------------------------------------------------------------------------




--------------------------------------- Iteration      1(   6)  ---------------------------------------


    POTLOK:  cpu time    0.3159: real time    0.3158
    SETDIJ:  cpu time    0.0102: real time    0.0102
     EDDAV:  cpu time    0.1658: real time    0.1840
       DOS:  cpu time    0.0003: real time    0.0003
    CHARGE:  cpu time    0.0905: real time    0.0905
    MIXING:  cpu time    0.0068: real time    0.0068
    --------------------------------------------
      LOOP:  cpu time    0.5895: real time    0.6076

 eigenvalue-minimisations  :    48
 total energy-change (2. order) : 0.1846993E+01  (-0.5563364E-01)
 number of electron       8.0000100 magnetization      -0.0000000
 augmentation part        0.1873088 magnetization      -0.0000071

 Broyden mixing:
  rms(total) = 0.50018E+00    rms(broyden)= 0.50017E+00
  rms(prec ) = 0.58251E+00
  weight for this iteration     100.00

 eigenvalues of (default mixing * dielectric matrix)
  average eigenvalue GAMMA=   2.3500
  2.3500

 Free energy of the ion-electron system (eV)
  ---------------------------------------------------
  alpha Z        PSCENC =         0.10827411
  Ewald energy   TEWEN  =       216.67781545
  -Hartree energ DENC   =      -245.75159712
  -exchange      EXHF   =         0.00000000
  -V(xc)+E(xc)   XCENC  =        21.34554513
  PAW double counting   =        56.45865543      -56.59558608
  entropy T*S    EENTRO =        -0.22567583
  eigenvalues    EBANDS =      -109.06677138
  atomic energy  EATOM  =        99.56620307
  Solvation  Ediel_sol  =         0.00000000
  ---------------------------------------------------
  free energy    TOTEN  =       -17.48313723 eV

  energy without entropy =      -17.25746140  energy(sigma->0) =      -17.37029931


--------------------------------------------------------------------------------------------------------




--------------------------------------- Iteration      1(   7)  ---------------------------------------


    POTLOK:  cpu time    0.3158: real time    0.3157
    SETDIJ:  cpu time    0.0104: real time    0.0104
     EDDAV:  cpu time    0.1853: real time    0.1853
       DOS:  cpu time    0.0003: real time    0.0003
    CHARGE:  cpu time    0.0933: real time    0.0933
    MIXING:  cpu time    0.0073: real time    0.0072
    --------------------------------------------
      LOOP:  cpu time    0.6124: real time    0.6122

 eigenvalue-minimisations  :    56
 total energy-change (2. order) : 0.1245154E+01  (-0.1611678E+00)
 number of electron       8.0000095 magnetization       0.0000000
 augmentation part        0.1774151 magnetization       0.0000063

 Broyden mixing:
  rms(total) = 0.62773E-01    rms(broyden)= 0.62479E-01
  rms(prec ) = 0.84893E-01
  weight for this iteration     100.00

 eigenvalues of (default mixing * dielectric matrix)
  average eigenvalue GAMMA=   2.7364
  2.7364  2.7364

 Free energy of the ion-electron system (eV)
  ---------------------------------------------------
  alpha Z        PSCENC =         0.10827411
  Ewald energy   TEWEN  =       216.67781545
  -Hartree energ DENC   =      -267.69721568
  -exchange      EXHF   =         0.00000000
  -V(xc)+E(xc)   XCENC  =        23.62881175
  PAW double counting   =       154.70687633     -154.96873693
  entropy T*S    EENTRO =        -0.22567583
  eigenvalues    EBANDS =       -88.03433585
  atomic energy  EATOM  =        99.56620307
  Solvation  Ediel_sol  =         0.00000000
  ---------------------------------------------------
  free energy    TOTEN  =       -16.23798358 eV

  energy without entropy =      -16.01230775  energy(sigma->0) =      -16.12514567


--------------------------------------------------------------------------------------------------------




--------------------------------------- Iteration      1(   8)  ---------------------------------------


    POTLOK:  cpu time    0.3178: real time    0.3177
    SETDIJ:  cpu time    0.0101: real time    0.0101
     EDDAV:  cpu time    0.1621: real time    0.1620
       DOS:  cpu time    0.0003: real time    0.0003
    CHARGE:  cpu time    0.0912: real time    0.0911
    MIXING:  cpu time    0.0077: real time    0.0077
    --------------------------------------------
      LOOP:  cpu time    0.5891: real time    0.5890

 eigenvalue-minimisations  :    48
 total energy-change (2. order) : 0.1837389E-01  (-0.1035367E-02)
 number of electron       8.0000094 magnetization      -0.0000000
 augmentation part        0.1767570 magnetization      -0.0000314

 Broyden mixing:
  rms(total) = 0.29211E-01    rms(broyden)= 0.29165E-01
  rms(prec ) = 0.41284E-01
  weight for this iteration     100.00

 eigenvalues of (default mixing * dielectric matrix)
  average eigenvalue GAMMA=   2.1073
  0.9198  2.8456  2.5564

 Free energy of the ion-electron system (eV)
  ---------------------------------------------------
  alpha Z        PSCENC =         0.10827411
  Ewald energy   TEWEN  =       216.67781545
  -Hartree energ DENC   =      -270.51620924
  -exchange      EXHF   =         0.00000000
  -V(xc)+E(xc)   XCENC  =        23.72564994
  PAW double counting   =       149.72050524     -149.95450072
  entropy T*S    EENTRO =        -0.22567584
  eigenvalues    EBANDS =       -85.32167172
  atomic energy  EATOM  =        99.56620307
  Solvation  Ediel_sol  =         0.00000000
  ---------------------------------------------------
  free energy    TOTEN  =       -16.21960969 eV

  energy without entropy =      -15.99393386  energy(sigma->0) =      -16.10677177


--------------------------------------------------------------------------------------------------------




--------------------------------------- Iteration      1(   9)  ---------------------------------------


    POTLOK:  cpu time    0.3174: real time    0.3173
    SETDIJ:  cpu time    0.0103: real time    0.0103
     EDDAV:  cpu time    0.1830: real time    0.1829
       DOS:  cpu time    0.0003: real time    0.0003
    CHARGE:  cpu time    0.0914: real time    0.0914
    MIXING:  cpu time    0.0082: real time    0.0082
    --------------------------------------------
      LOOP:  cpu time    0.6107: real time    0.6104

 eigenvalue-minimisations  :    56
 total energy-change (2. order) : 0.1229022E-01  (-0.7890109E-03)
 number of electron       8.0000094 magnetization       0.0000000
 augmentation part        0.1761359 magnetization       0.0000043

 Broyden mixing:
  rms(total) = 0.94583E-02    rms(broyden)= 0.94301E-02
  rms(prec ) = 0.21260E-01
  weight for this iteration     100.00

 eigenvalues of (default mixing * dielectric matrix)
  average eigenvalue GAMMA=   2.0152
  3.0075  2.3292  1.8239  0.9004

 Free energy of the ion-electron system (eV)
  ---------------------------------------------------
  alpha Z        PSCENC =         0.10827411
  Ewald energy   TEWEN  =       216.67781545
  -Hartree energ DENC   =      -272.43662047
  -exchange      EXHF   =         0.00000000
  -V(xc)+E(xc)   XCENC  =        23.88439748
  PAW double counting   =       156.33620063     -156.57746423
  entropy T*S    EENTRO =        -0.22567628
  eigenvalues    EBANDS =       -83.54044924
  atomic energy  EATOM  =        99.56620307
  Solvation  Ediel_sol  =         0.00000000
  ---------------------------------------------------
  free energy    TOTEN  =       -16.20731947 eV

  energy without entropy =      -15.98164320  energy(sigma->0) =      -16.09448133


--------------------------------------------------------------------------------------------------------




--------------------------------------- Iteration      1(  10)  ---------------------------------------


    POTLOK:  cpu time    0.3249: real time    0.3247
    SETDIJ:  cpu time    0.0104: real time    0.0104
     EDDAV:  cpu time    0.1737: real time    0.1737
       DOS:  cpu time    0.0003: real time    0.0003
    CHARGE:  cpu time    0.0967: real time    0.0967
    MIXING:  cpu time    0.0091: real time    0.0091
    --------------------------------------------
      LOOP:  cpu time    0.6151: real time    0.6149

 eigenvalue-minimisations  :    52
 total energy-change (2. order) :-0.8932265E-02  (-0.4099976E-03)
 number of electron       8.0000094 magnetization      -0.0000000
 augmentation part        0.1758689 magnetization      -0.0000361

 Broyden mixing:
  rms(total) = 0.48745E-02    rms(broyden)= 0.48653E-02
  rms(prec ) = 0.95327E-02
  weight for this iteration     100.00

 eigenvalues of (default mixing * dielectric matrix)
  average eigenvalue GAMMA=   2.2803
  4.4591  2.7715  2.4877  0.9351  0.7484

 Free energy of the ion-electron system (eV)
  ---------------------------------------------------
  alpha Z        PSCENC =         0.10827411
  Ewald energy   TEWEN  =       216.67781545
  -Hartree energ DENC   =      -274.17405016
  -exchange      EXHF   =         0.00000000
  -V(xc)+E(xc)   XCENC  =        23.93604498
  PAW double counting   =       156.38839241     -156.63270813
  entropy T*S    EENTRO =        -0.22567778
  eigenvalues    EBANDS =       -81.86054569
  atomic energy  EATOM  =        99.56620307
  Solvation  Ediel_sol  =         0.00000000
  ---------------------------------------------------
  free energy    TOTEN  =       -16.21625174 eV

  energy without entropy =      -15.99057396  energy(sigma->0) =      -16.10341285


--------------------------------------------------------------------------------------------------------




--------------------------------------- Iteration      1(  11)  ---------------------------------------


    POTLOK:  cpu time    0.3169: real time    0.3168
    SETDIJ:  cpu time    0.0103: real time    0.0103
     EDDAV:  cpu time    0.1721: real time    0.1720
       DOS:  cpu time    0.0003: real time    0.0003
    CHARGE:  cpu time    0.0953: real time    0.0953
    MIXING:  cpu time    0.0092: real time    0.0092
    --------------------------------------------
      LOOP:  cpu time    0.6041: real time    0.6039

 eigenvalue-minimisations  :    52
 total energy-change (2. order) :-0.3293193E-02  (-0.2764868E-04)
 number of electron       8.0000094 magnetization      -0.0000000
 augmentation part        0.1758571 magnetization       0.0000051

 Broyden mixing:
  rms(total) = 0.34806E-02    rms(broyden)= 0.34798E-02
  rms(prec ) = 0.73280E-02
  weight for this iteration     100.00

 eigenvalues of (default mixing * dielectric matrix)
  average eigenvalue GAMMA=   2.0662
  4.6074  2.7963  2.4744  0.9120  0.9120  0.6952

 Free energy of the ion-electron system (eV)
  ---------------------------------------------------
  alpha Z        PSCENC =         0.10827411
  Ewald energy   TEWEN  =       216.67781545
  -Hartree energ DENC   =      -274.36604112
  -exchange      EXHF   =         0.00000000
  -V(xc)+E(xc)   XCENC  =        23.93139291
  PAW double counting   =       155.95092357     -156.19487850
  entropy T*S    EENTRO =        -0.22567714
  eigenvalues    EBANDS =       -81.66755728
  atomic energy  EATOM  =        99.56620307
  Solvation  Ediel_sol  =         0.00000000
  ---------------------------------------------------
  free energy    TOTEN  =       -16.21954493 eV

  energy without entropy =      -15.99386779  energy(sigma->0) =      -16.10670636


--------------------------------------------------------------------------------------------------------




--------------------------------------- Iteration      1(  12)  ---------------------------------------


    POTLOK:  cpu time    0.3144: real time    0.3142
    SETDIJ:  cpu time    0.0102: real time    0.0102
     EDDAV:  cpu time    0.1824: real time    0.1823
       DOS:  cpu time    0.0003: real time    0.0003
    CHARGE:  cpu time    0.0914: real time    0.0913
    MIXING:  cpu time    0.0101: real time    0.0101
    --------------------------------------------
      LOOP:  cpu time    0.6087: real time    0.6084

 eigenvalue-minimisations  :    56
 total energy-change (2. order) :-0.7663288E-02  (-0.1213357E-03)
 number of electron       8.0000094 magnetization       0.0000000
 augmentation part        0.1758867 magnetization       0.0000032

 Broyden mixing:
  rms(total) = 0.21286E-02    rms(broyden)= 0.21286E-02
  rms(prec ) = 0.39094E-02
  weight for this iteration     100.00

 eigenvalues of (default mixing * dielectric matrix)
  average eigenvalue GAMMA=   2.4696
  5.7325  4.0182  2.6869  2.4611  0.9952  0.7710  0.6221

 Free energy of the ion-electron system (eV)
  ---------------------------------------------------
  alpha Z        PSCENC =         0.10827411
  Ewald energy   TEWEN  =       216.67781545
  -Hartree energ DENC   =      -274.43493711
  -exchange      EXHF   =         0.00000000
  -V(xc)+E(xc)   XCENC  =        23.91380915
  PAW double counting   =       155.67742374     -155.91996320
  entropy T*S    EENTRO =        -0.22567589
  eigenvalues    EBANDS =       -81.59015754
  atomic energy  EATOM  =        99.56620307
  Solvation  Ediel_sol  =         0.00000000
  ---------------------------------------------------
  free energy    TOTEN  =       -16.22720822 eV

  energy without entropy =      -16.00153233  energy(sigma->0) =      -16.11437027


--------------------------------------------------------------------------------------------------------




--------------------------------------- Iteration      1(  13)  ---------------------------------------


    POTLOK:  cpu time    0.3158: real time    0.3157
    SETDIJ:  cpu time    0.0104: real time    0.0104
     EDDAV:  cpu time    0.1642: real time    0.1641
       DOS:  cpu time    0.0003: real time    0.0003
    CHARGE:  cpu time    0.0917: real time    0.0916
    MIXING:  cpu time    0.0104: real time    0.0104
    --------------------------------------------
      LOOP:  cpu time    0.5927: real time    0.5925

 eigenvalue-minimisations  :    48
 total energy-change (2. order) :-0.1664134E-02  (-0.2784397E-04)
 number of electron       8.0000094 magnetization       0.0000000
 augmentation part        0.1758913 magnetization      -0.0000016

 Broyden mixing:
  rms(total) = 0.13573E-02    rms(broyden)= 0.13573E-02
  rms(prec ) = 0.23293E-02
  weight for this iteration     100.00

 eigenvalues of (default mixing * dielectric matrix)
  average eigenvalue GAMMA=   2.3364
  6.3282  3.9869  2.6517  2.4748  0.9464  0.9464  0.7322  0.6249

 Free energy of the ion-electron system (eV)
  ---------------------------------------------------
  alpha Z        PSCENC =         0.10827411
  Ewald energy   TEWEN  =       216.67781545
  -Hartree energ DENC   =      -274.52000968
  -exchange      EXHF   =         0.00000000
  -V(xc)+E(xc)   XCENC  =        23.90712296
  PAW double counting   =       155.53689394     -155.77891589
  entropy T*S    EENTRO =        -0.22567584
  eigenvalues    EBANDS =       -81.50058048
  atomic energy  EATOM  =        99.56620307
  Solvation  Ediel_sol  =         0.00000000
  ---------------------------------------------------
  free energy    TOTEN  =       -16.22887235 eV

  energy without entropy =      -16.00319651  energy(sigma->0) =      -16.11603443


--------------------------------------------------------------------------------------------------------




--------------------------------------- Iteration      1(  14)  ---------------------------------------


    POTLOK:  cpu time    0.3161: real time    0.3160
    SETDIJ:  cpu time    0.0104: real time    0.0104
     EDDAV:  cpu time    0.1645: real time    0.1644
       DOS:  cpu time    0.0003: real time    0.0003
    CHARGE:  cpu time    0.0918: real time    0.0918
    MIXING:  cpu time    0.0112: real time    0.0112
    --------------------------------------------
      LOOP:  cpu time    0.5943: real time    0.5940

 eigenvalue-minimisations  :    48
 total energy-change (2. order) :-0.6038710E-03  (-0.1153898E-05)
 number of electron       8.0000094 magnetization       0.0000000
 augmentation part        0.1758772 magnetization       0.0000014

 Broyden mixing:
  rms(total) = 0.79748E-03    rms(broyden)= 0.79747E-03
  rms(prec ) = 0.15250E-02
  weight for this iteration     100.00

 eigenvalues of (default mixing * dielectric matrix)
  average eigenvalue GAMMA=   2.5665
  7.3691  3.6915  3.6915  2.7347  2.4317  1.0010  0.8394  0.7156  0.6242

 Free energy of the ion-electron system (eV)
  ---------------------------------------------------
  alpha Z        PSCENC =         0.10827411
  Ewald energy   TEWEN  =       216.67781545
  -Hartree energ DENC   =      -274.59808909
  -exchange      EXHF   =         0.00000000
  -V(xc)+E(xc)   XCENC  =        23.90987650
  PAW double counting   =       155.58506591     -155.82747585
  entropy T*S    EENTRO =        -0.22567584
  eigenvalues    EBANDS =       -81.42547050
  atomic energy  EATOM  =        99.56620307
  Solvation  Ediel_sol  =         0.00000000
  ---------------------------------------------------
  free energy    TOTEN  =       -16.22947622 eV

  energy without entropy =      -16.00380039  energy(sigma->0) =      -16.11663831


--------------------------------------------------------------------------------------------------------




--------------------------------------- Iteration      1(  15)  ---------------------------------------


    POTLOK:  cpu time    0.3167: real time    0.3166
    SETDIJ:  cpu time    0.0104: real time    0.0104
     EDDAV:  cpu time    0.1641: real time    0.1641
       DOS:  cpu time    0.0003: real time    0.0003
    CHARGE:  cpu time    0.0915: real time    0.0915
    MIXING:  cpu time    0.0121: real time    0.0120
    --------------------------------------------
      LOOP:  cpu time    0.5951: real time    0.5949

 eigenvalue-minimisations  :    48
 total energy-change (2. order) :-0.8896846E-03  (-0.2762454E-05)
 number of electron       8.0000094 magnetization       0.0000000
 augmentation part        0.1758637 magnetization       0.0000001

 Broyden mixing:
  rms(total) = 0.33081E-03    rms(broyden)= 0.33078E-03
  rms(prec ) = 0.48895E-03
  weight for this iteration     100.00

 eigenvalues of (default mixing * dielectric matrix)
  average eigenvalue GAMMA=   2.5934
  8.5363  4.6800  3.6174  2.6381  2.4468  0.9805  0.9805  0.7565  0.6749  0.6230

 Free energy of the ion-electron system (eV)
  ---------------------------------------------------
  alpha Z        PSCENC =         0.10827411
  Ewald energy   TEWEN  =       216.67781545
  -Hartree energ DENC   =      -274.68225343
  -exchange      EXHF   =         0.00000000
  -V(xc)+E(xc)   XCENC  =        23.91354044
  PAW double counting   =       155.73859460     -155.98146847
  entropy T*S    EENTRO =        -0.22567583
  eigenvalues    EBANDS =       -81.34539584
  atomic energy  EATOM  =        99.56620307
  Solvation  Ediel_sol  =         0.00000000
  ---------------------------------------------------
  free energy    TOTEN  =       -16.23036591 eV

  energy without entropy =      -16.00469008  energy(sigma->0) =      -16.11752799


--------------------------------------------------------------------------------------------------------




--------------------------------------- Iteration      1(  16)  ---------------------------------------


    POTLOK:  cpu time    0.3167: real time    0.3165
    SETDIJ:  cpu time    0.0104: real time    0.0104
     EDDAV:  cpu time    0.1635: real time    0.1635
       DOS:  cpu time    0.0003: real time    0.0003
    CHARGE:  cpu time    0.0910: real time    0.0910
    MIXING:  cpu time    0.0125: real time    0.0125
    --------------------------------------------
      LOOP:  cpu time    0.5943: real time    0.5941

 eigenvalue-minimisations  :    48
 total energy-change (2. order) :-0.6213005E-04  (-0.9390825E-07)
 number of electron       8.0000094 magnetization       0.0000000
 augmentation part        0.1758646 magnetization      -0.0000000

 Broyden mixing:
  rms(total) = 0.23862E-03    rms(broyden)= 0.23862E-03
  rms(prec ) = 0.35897E-03
  weight for this iteration     100.00

 eigenvalues of (default mixing * dielectric matrix)
  average eigenvalue GAMMA=   2.5573
  8.8304  4.9421  3.5171  2.6205  2.4615  1.7486  1.0309  0.9265  0.7602  0.6244
  0.6683

 Free energy of the ion-electron system (eV)
  ---------------------------------------------------
  alpha Z        PSCENC =         0.10827411
  Ewald energy   TEWEN  =       216.67781545
  -Hartree energ DENC   =      -274.67793505
  -exchange      EXHF   =         0.00000000
  -V(xc)+E(xc)   XCENC  =        23.91306098
  PAW double counting   =       155.73271992     -155.97554257
  entropy T*S    EENTRO =        -0.22567583
  eigenvalues    EBANDS =       -81.34934812
  atomic energy  EATOM  =        99.56620307
  Solvation  Ediel_sol  =         0.00000000
  ---------------------------------------------------
  free energy    TOTEN  =       -16.23042804 eV

  energy without entropy =      -16.00475221  energy(sigma->0) =      -16.11759012


--------------------------------------------------------------------------------------------------------




--------------------------------------- Iteration      1(  17)  ---------------------------------------


    POTLOK:  cpu time    0.3227: real time    0.3226
    SETDIJ:  cpu time    0.0104: real time    0.0104
     EDDAV:  cpu time    0.1639: real time    0.1639
       DOS:  cpu time    0.0003: real time    0.0003
    CHARGE:  cpu time    0.0917: real time    0.0916
    MIXING:  cpu time    0.0144: real time    0.0144
    --------------------------------------------
      LOOP:  cpu time    0.6035: real time    0.6032

 eigenvalue-minimisations  :    48
 total energy-change (2. order) :-0.1269079E-03  (-0.2138633E-06)
 number of electron       8.0000094 magnetization      -0.0000000
 augmentation part        0.1758693 magnetization       0.0000003

 Broyden mixing:
  rms(total) = 0.63232E-04    rms(broyden)= 0.63180E-04
  rms(prec ) = 0.10446E-03
  weight for this iteration     100.00

 eigenvalues of (default mixing * dielectric matrix)
  average eigenvalue GAMMA=   2.6196
  9.3708  5.3216  3.8276  3.0678  2.5679  2.4128  1.0293  1.0293  0.7913  0.7284
  0.6254  0.6629

 Free energy of the ion-electron system (eV)
  ---------------------------------------------------
  alpha Z        PSCENC =         0.10827411
  Ewald energy   TEWEN  =       216.67781545
  -Hartree energ DENC   =      -274.66847952
  -exchange      EXHF   =         0.00000000
  -V(xc)+E(xc)   XCENC  =        23.91168245
  PAW double counting   =       155.67560200     -155.91826025
  entropy T*S    EENTRO =        -0.22567583
  eigenvalues    EBANDS =       -81.35771642
  atomic energy  EATOM  =        99.56620307
  Solvation  Ediel_sol  =         0.00000000
  ---------------------------------------------------
  free energy    TOTEN  =       -16.23055495 eV

  energy without entropy =      -16.00487911  energy(sigma->0) =      -16.11771703


--------------------------------------------------------------------------------------------------------




--------------------------------------- Iteration      1(  18)  ---------------------------------------


    POTLOK:  cpu time    0.3143: real time    0.3141
    SETDIJ:  cpu time    0.0103: real time    0.0103
     EDDAV:  cpu time    0.1629: real time    0.1629
       DOS:  cpu time    0.0003: real time    0.0003
    CHARGE:  cpu time    0.0914: real time    0.0913
    MIXING:  cpu time    0.0142: real time    0.0142
    --------------------------------------------
      LOOP:  cpu time    0.5933: real time    0.5931

 eigenvalue-minimisations  :    48
 total energy-change (2. order) :-0.1655810E-04  (-0.2832672E-07)
 number of electron       8.0000094 magnetization      -0.0000000
 augmentation part        0.1758696 magnetization      -0.0000000

 Broyden mixing:
  rms(total) = 0.44169E-04    rms(broyden)= 0.44163E-04
  rms(prec ) = 0.74609E-04
  weight for this iteration     100.00

 eigenvalues of (default mixing * dielectric matrix)
  average eigenvalue GAMMA=   2.5323
  9.4776  5.4628  3.8729  3.2385  2.6108  2.4270  1.0761  1.0761  0.9227  0.7680
  0.7115  0.6260  0.6503

 Free energy of the ion-electron system (eV)
  ---------------------------------------------------
  alpha Z        PSCENC =         0.10827411
  Ewald energy   TEWEN  =       216.67781545
  -Hartree energ DENC   =      -274.66990069
  -exchange      EXHF   =         0.00000000
  -V(xc)+E(xc)   XCENC  =        23.91166036
  PAW double counting   =       155.67257238     -155.91521641
  entropy T*S    EENTRO =        -0.22567583
  eigenvalues    EBANDS =       -81.35630395
  atomic energy  EATOM  =        99.56620307
  Solvation  Ediel_sol  =         0.00000000
  ---------------------------------------------------
  free energy    TOTEN  =       -16.23057151 eV

  energy without entropy =      -16.00489567  energy(sigma->0) =      -16.11773359


--------------------------------------------------------------------------------------------------------




--------------------------------------- Iteration      1(  19)  ---------------------------------------


    POTLOK:  cpu time    0.3151: real time    0.3149
    SETDIJ:  cpu time    0.0103: real time    0.0103
     EDDAV:  cpu time    0.1627: real time    0.1627
       DOS:  cpu time    0.0003: real time    0.0003
    CHARGE:  cpu time    0.0913: real time    0.0912
    MIXING:  cpu time    0.0150: real time    0.0150
    --------------------------------------------
      LOOP:  cpu time    0.5947: real time    0.5944

 eigenvalue-minimisations  :    48
 total energy-change (2. order) :-0.7472043E-05  (-0.7020921E-08)
 number of electron       8.0000094 magnetization      -0.0000000
 augmentation part        0.1758689 magnetization       0.0000001

 Broyden mixing:
  rms(total) = 0.22632E-04    rms(broyden)= 0.22627E-04
  rms(prec ) = 0.43982E-04
  weight for this iteration     100.00

 eigenvalues of (default mixing * dielectric matrix)
  average eigenvalue GAMMA=   2.5160
  9.5263  5.5554  3.8674  3.4822  2.6780  2.4472  2.0010  1.0896  0.9907  0.8670
  0.7472  0.7057  0.6273  0.6388

 Free energy of the ion-electron system (eV)
  ---------------------------------------------------
  alpha Z        PSCENC =         0.10827411
  Ewald energy   TEWEN  =       216.67781545
  -Hartree energ DENC   =      -274.67213827
  -exchange      EXHF   =         0.00000000
  -V(xc)+E(xc)   XCENC  =        23.91182108
  PAW double counting   =       155.68145680     -155.92412057
  entropy T*S    EENTRO =        -0.22567583
  eigenvalues    EBANDS =       -81.35421482
  atomic energy  EATOM  =        99.56620307
  Solvation  Ediel_sol  =         0.00000000
  ---------------------------------------------------
  free energy    TOTEN  =       -16.23057898 eV

  energy without entropy =      -16.00490314  energy(sigma->0) =      -16.11774106


--------------------------------------------------------------------------------------------------------




--------------------------------------- Iteration      1(  20)  ---------------------------------------


    POTLOK:  cpu time    0.3167: real time    0.3165
    SETDIJ:  cpu time    0.0102: real time    0.0102
     EDDAV:  cpu time    0.1628: real time    0.1627
       DOS:  cpu time    0.0003: real time    0.0003
    CHARGE:  cpu time    0.0908: real time    0.0908
    MIXING:  cpu time    0.0158: real time    0.0158
    --------------------------------------------
      LOOP:  cpu time    0.5967: real time    0.5964

 eigenvalue-minimisations  :    48
 total energy-change (2. order) :-0.6641464E-05  (-0.9430580E-08)
 number of electron       8.0000094 magnetization      -0.0000000
 augmentation part        0.1758684 magnetization      -0.0000001

 Broyden mixing:
  rms(total) = 0.12893E-04    rms(broyden)= 0.12880E-04
  rms(prec ) = 0.24487E-04
  weight for this iteration     100.00

 eigenvalues of (default mixing * dielectric matrix)
  average eigenvalue GAMMA=   2.4975
  9.5736  5.6079  4.2801  3.5083  2.9680  2.5780  2.4079  1.0591  1.0591  0.9461
  0.7922  0.7393  0.6869  0.6282  0.6282

 Free energy of the ion-electron system (eV)
  ---------------------------------------------------
  alpha Z        PSCENC =         0.10827411
  Ewald energy   TEWEN  =       216.67781545
  -Hartree energ DENC   =      -274.67302843
  -exchange      EXHF   =         0.00000000
  -V(xc)+E(xc)   XCENC  =        23.91188614
  PAW double counting   =       155.68755310     -155.93023664
  entropy T*S    EENTRO =        -0.22567583
  eigenvalues    EBANDS =       -81.35337659
  atomic energy  EATOM  =        99.56620307
  Solvation  Ediel_sol  =         0.00000000
  ---------------------------------------------------
  free energy    TOTEN  =       -16.23058562 eV

  energy without entropy =      -16.00490979  energy(sigma->0) =      -16.11774770


--------------------------------------------------------------------------------------------------------




--------------------------------------- Iteration      1(  21)  ---------------------------------------


    POTLOK:  cpu time    0.3161: real time    0.3160
    SETDIJ:  cpu time    0.0103: real time    0.0103
     EDDAV:  cpu time    0.1640: real time    0.1640
       DOS:  cpu time    0.0003: real time    0.0003
    CHARGE:  cpu time    0.0916: real time    0.0916
    MIXING:  cpu time    0.0166: real time    0.0166
    --------------------------------------------
      LOOP:  cpu time    0.5990: real time    0.5988

 eigenvalue-minimisations  :    48
 total energy-change (2. order) :-0.1733500E-05  (-0.1962675E-08)
 number of electron       8.0000094 magnetization       0.0000000
 augmentation part        0.1758684 magnetization       0.0000000

 Broyden mixing:
  rms(total) = 0.96369E-05    rms(broyden)= 0.96357E-05
  rms(prec ) = 0.18415E-04
  weight for this iteration     100.00

 eigenvalues of (default mixing * dielectric matrix)
  average eigenvalue GAMMA=   2.4537
  9.5873  5.6281  4.5263  3.4395  3.2046  2.6081  2.4234  1.3800  1.1102  0.9539
  0.9539  0.7789  0.7348  0.6764  0.6267  0.6267

 Free energy of the ion-electron system (eV)
  ---------------------------------------------------
  alpha Z        PSCENC =         0.10827411
  Ewald energy   TEWEN  =       216.67781545
  -Hartree energ DENC   =      -274.67294843
  -exchange      EXHF   =         0.00000000
  -V(xc)+E(xc)   XCENC  =        23.91186548
  PAW double counting   =       155.68683705     -155.92951964
  entropy T*S    EENTRO =        -0.22567583
  eigenvalues    EBANDS =       -81.35343861
  atomic energy  EATOM  =        99.56620307
  Solvation  Ediel_sol  =         0.00000000
  ---------------------------------------------------
  free energy    TOTEN  =       -16.23058735 eV

  energy without entropy =      -16.00491152  energy(sigma->0) =      -16.11774944


--------------------------------------------------------------------------------------------------------




--------------------------------------- Iteration      1(  22)  ---------------------------------------


    POTLOK:  cpu time    0.3196: real time    0.3195
    SETDIJ:  cpu time    0.0103: real time    0.0103
     EDDAV:  cpu time    0.1723: real time    0.1723
       DOS:  cpu time    0.0003: real time    0.0003
    CHARGE:  cpu time    0.0912: real time    0.0912
    MIXING:  cpu time    0.0178: real time    0.0178
    --------------------------------------------
      LOOP:  cpu time    0.6114: real time    0.6112

 eigenvalue-minimisations  :    52
 total energy-change (2. order) :-0.2132264E-05  (-0.1998099E-08)
 number of electron       8.0000094 magnetization       0.0000000
 augmentation part        0.1758686 magnetization       0.0000000

 Broyden mixing:
  rms(total) = 0.40531E-05    rms(broyden)= 0.40508E-05
  rms(prec ) = 0.91205E-05
  weight for this iteration     100.00

 eigenvalues of (default mixing * dielectric matrix)
  average eigenvalue GAMMA=   2.4743
  9.5913  5.8128  4.8203  3.8616  3.1618  2.6458  2.4865  2.3428  1.0793  1.0132
  1.0132  0.8295  0.7679  0.7171  0.6678  0.6260  0.6260

 Free energy of the ion-electron system (eV)
  ---------------------------------------------------
  alpha Z        PSCENC =         0.10827411
  Ewald energy   TEWEN  =       216.67781545
  -Hartree energ DENC   =      -274.67302307
  -exchange      EXHF   =         0.00000000
  -V(xc)+E(xc)   XCENC  =        23.91183872
  PAW double counting   =       155.68471869     -155.92739419
  entropy T*S    EENTRO =        -0.22567583
  eigenvalues    EBANDS =       -81.35334643
  atomic energy  EATOM  =        99.56620307
  Solvation  Ediel_sol  =         0.00000000
  ---------------------------------------------------
  free energy    TOTEN  =       -16.23058948 eV

  energy without entropy =      -16.00491365  energy(sigma->0) =      -16.11775157


--------------------------------------------------------------------------------------------------------




--------------------------------------- Iteration      1(  23)  ---------------------------------------


    POTLOK:  cpu time    0.3186: real time    0.3184
    SETDIJ:  cpu time    0.0104: real time    0.0104
     EDDAV:  cpu time    0.1721: real time    0.1720
       DOS:  cpu time    0.0003: real time    0.0003
    --------------------------------------------
      LOOP:  cpu time    0.5012: real time    0.5010

 eigenvalue-minimisations  :    52
 total energy-change (2. order) :-0.8189545E-06  (-0.6994815E-09)
 number of electron       8.0000094 magnetization       0.0000000
 augmentation part        0.1758686 magnetization       0.0000000

 Free energy of the ion-electron system (eV)
  ---------------------------------------------------
  alpha Z        PSCENC =         0.10827411
  Ewald energy   TEWEN  =       216.67781545
  -Hartree energ DENC   =      -274.67303431
  -exchange      EXHF   =         0.00000000
  -V(xc)+E(xc)   XCENC  =        23.91182905
  PAW double counting   =       155.68411458     -155.92678883
  entropy T*S    EENTRO =        -0.22567583
  eigenvalues    EBANDS =       -81.35332760
  atomic energy  EATOM  =        99.56620307
  Solvation  Ediel_sol  =         0.00000000
  ---------------------------------------------------
  free energy    TOTEN  =       -16.23059030 eV

  energy without entropy =      -16.00491447  energy(sigma->0) =      -16.11775239


--------------------------------------------------------------------------------------------------------




 average (electrostatic) potential at core
  the test charge radii are     0.5201
  (the norm of the test charge is              1.0001)
       1 -42.1229       2 -42.1229       3 -42.1229       4 -42.1229       5 -42.1229
       6 -42.1229       7 -42.1229       8 -42.1229
 
 
 
 E-fermi :  -1.0572     XC(G=0):  -0.4961     alpha+bet : -0.1534


 spin component 1

 k-point     1 :       0.0000    0.0000    0.0000
  band No.  band energies     occupation 
      1     -15.6469      1.00000
      2     -11.9863      1.00000
      3     -11.9863      1.00000
      4      -1.0572      0.50000
      5      -1.0572      0.50000
      6      -0.1337      0.00000
      7      -0.0886      0.00000
      8      -0.0886      0.00000
      9       0.5634      0.00000
     10       0.5652      0.00000
     11       0.9188      0.00000
     12       0.9188      0.00000

 spin component 2

 k-point     1 :       0.0000    0.0000    0.0000
  band No.  band energies     occupation 
      1     -15.6469      1.00000
      2     -11.9863      1.00000
      3     -11.9863      1.00000
      4      -1.0572      0.50000
      5      -1.0572      0.50000
      6      -0.1334      0.00000
      7      -0.0871      0.00000
      8      -0.0871      0.00000
      9       0.5606      0.00000
     10       0.5635      0.00000
     11       0.9148      0.00000
     12       0.9148      0.00000


--------------------------------------------------------------------------------------------------------


 soft charge-density along one line, spin component           1
         0         1         2         3         4         5         6         7         8         9
 total charge-density along one line
 
 soft charge-density along one line, spin component           2
         0         1         2         3         4         5         6         7         8         9
 total charge-density along one line
 
 pseudopotential strength for first ion, spin component:           1
 -2.348  -4.048   0.000  -0.000   0.000
 -4.048  -6.892   0.000  -0.000   0.000
  0.000   0.000  -0.335  -0.000  -0.000
 -0.000  -0.000  -0.000  -0.326   0.000
  0.000   0.000  -0.000   0.000  -0.335
 pseudopotential strength for first ion, spin component:           2
 -2.348  -4.048   0.000   0.000   0.000
 -4.048  -6.892   0.000   0.000   0.000
  0.000   0.000  -0.335  -0.000  -0.000
  0.000   0.000  -0.000  -0.326   0.000
  0.000   0.000  -0.000   0.000  -0.335
 total augmentation occupancy for first ion, spin component:           1
  4.361  -0.954  -0.000   0.000  -0.000
 -0.954   0.252  -0.000   0.000   0.000
  0.000   0.000   0.000   0.000   0.000
  0.000   0.000   0.000   0.100   0.000
  0.000  -0.000   0.000   0.000   0.000
 total augmentation occupancy for first ion, spin component:           2
 -0.000   0.000  -0.000   0.000   0.000
  0.000  -0.000   0.000   0.000  -0.000
 -0.000   0.000   0.000   0.000   0.000
  0.000   0.000  -0.000   0.000   0.000
  0.000  -0.000   0.000  -0.000   0.000


------------------------ aborting loop because EDIFF is reached ----------------------------------------


    CHARGE:  cpu time    0.0856: real time    0.0856
    FORLOC:  cpu time    0.0132: real time    0.0132
    FORNL :  cpu time    0.0292: real time    0.0292
    STRESS:  cpu time    0.1134: real time    0.1134
    FORHAR:  cpu time    0.0313: real time    0.0313
    MIXING:  cpu time    0.0187: real time    0.0187
    OFIELD:  cpu time    0.0001: real time    0.0001

  FORCE on cell =-STRESS in cart. coord.  units (eV):
  Direction    XX          YY          ZZ          XY          YZ          ZX
  --------------------------------------------------------------------------------------
  Alpha Z     0.10827     0.10827     0.10827
  Ewald     -71.99892   -71.99892   360.67567     0.00000    -0.00000    -0.00000
  Hartree     0.02676     0.02676   274.61976    -0.00000    -0.00000    -0.00000
  E(xc)     -26.86369   -26.86369   -23.95393     0.00000     0.00000    -0.00000
  Local      26.62586    26.62586  -631.40241     0.00000    -0.00000    -0.00000
  n-local   -24.49325   -24.49325   -29.12232     0.00000     0.00000     0.00000
  augment     1.13706     1.13706     0.67145     0.00000     0.00000     0.00000
  Kinetic    94.00627    94.00627    87.30080     0.00000     0.00000    -0.00000
  Fock        0.00000     0.00000     0.00000     0.00000     0.00000     0.00000
  -------------------------------------------------------------------------------------
  Total      -1.45164    -1.45164    38.89729    -0.00000    -0.00000    -0.00000
  in kB      -1.61513    -1.61513    43.27802    -0.00000    -0.00000    -0.00000
  external pressure =       13.35 kB  Pullay stress =        0.00 kB


 VOLUME and BASIS-vectors are now :
 -----------------------------------------------------------------------------
  energy-cutoff  :      300.00
  volume of cell :     1440.00
      direct lattice vectors                 reciprocal lattice vectors
    15.000000000  0.000000000  0.000000000     0.066666667 -0.000000000  0.000000000
     0.000000000 15.000000000  0.000000000     0.000000000  0.066666667  0.000000000
     0.000000000  0.000000000  6.400000000    -0.000000000 -0.000000000  0.156250000

  length of vectors
    15.000000000 15.000000000  6.400000000     0.066666667  0.066666667  0.156250000


 FORCES acting on ions
    electron-ion (+dipol)            ewald-force                    non-local-force                 convergence-correction
 -----------------------------------------------------------------------------------------------
   0.315E-16 -.122E-16 -.248E-15   0.150E-18 -.268E-18 -.711E-14   0.110E-24 0.155E-24 0.000E+00   -.933E-16 -.601E-15 -.428E-15
   0.380E-16 -.488E-18 0.395E-15   0.212E-18 -.687E-19 -.888E-15   0.197E-25 -.129E-25 0.000E+00   -.706E-16 -.638E-15 -.564E-15
   0.426E-16 0.396E-17 0.974E-16   0.127E-18 -.174E-19 0.888E-15   0.148E-25 -.775E-25 0.000E+00   -.742E-16 -.645E-15 0.358E-15
   0.209E-16 -.190E-16 0.102E-14   0.705E-19 -.102E-18 -.735E-15   0.226E-24 0.258E-24 0.000E+00   -.667E-16 -.613E-15 -.627E-16
   0.273E-16 -.169E-16 0.230E-14   -.119E-18 0.189E-19 -.666E-15   -.120E-24 -.517E-25 0.000E+00   -.813E-16 -.592E-15 0.272E-16
   0.274E-16 -.152E-16 0.112E-14   -.176E-18 -.659E-19 0.888E-15   -.275E-26 -.181E-24 0.000E+00   -.942E-16 -.576E-15 -.397E-15
   0.404E-16 -.480E-17 0.287E-14   -.261E-18 -.146E-19 0.000E+00   0.372E-25 0.258E-25 0.000E+00   -.107E-15 -.561E-15 0.230E-15
   0.321E-16 -.877E-17 0.342E-14   -.198E-18 0.185E-18 0.710E-14   0.108E-24 0.775E-25 0.000E+00   -.980E-16 -.569E-15 0.249E-15
 -----------------------------------------------------------------------------------------------
   0.260E-15 -.733E-16 0.110E-13   -.196E-18 -.333E-18 -.523E-15   0.393E-24 0.194E-24 0.000E+00   -.685E-15 -.479E-14 -.588E-15
 
 
 POSITION                                       TOTAL-FORCE (eV/Angst)
 -----------------------------------------------------------------------------------
      0.00000      0.00000      0.00000         0.000000      0.000000      0.000000
      0.00000      0.00000      0.80000        -0.000000     -0.000000     -0.000000
      0.00000      0.00000      1.60000        -0.000000     -0.000000     -0.000000
      0.00000      0.00000      2.40000         0.000000     -0.000000      0.000000
      0.00000      0.00000      3.20000        -0.000000     -0.000000     -0.000000
      0.00000      0.00000      4.00000         0.000000      0.000000     -0.000000
      0.00000      0.00000      4.80000         0.000000     -0.000000     -0.000000
      0.00000      0.00000      5.60000        -0.000000      0.000000      0.000000
 -----------------------------------------------------------------------------------
    total drift:                               -0.000000     -0.000000      0.000000


--------------------------------------------------------------------------------------------------------



  FREE ENERGIE OF THE ION-ELECTRON SYSTEM (eV)
  ---------------------------------------------------
  free  energy   TOTEN  =       -16.23059030 eV

  energy  without entropy=      -16.00491447  energy(sigma->0) =      -16.11775239
 


--------------------------------------------------------------------------------------------------------


    POTLOK:  cpu time    0.3312: real time    0.3311


--------------------------------------------------------------------------------------------------------


     LOOP+:  cpu time   12.7542: real time   12.7681
    4ORBIT:  cpu time    0.0000: real time    0.0000

 total amount of memory used by VASP MPI-rank0    69223. kBytes
=======================================================================

   base      :      30000. kBytes
   nonl-proj :       2839. kBytes
   fftplans  :       8460. kBytes
   grid      :      26279. kBytes
   one-center:         19. kBytes
   wavefun   :       1626. kBytes
 
  
  
 General timing and accounting informations for this job:
 ========================================================
  
                  Total CPU time used (sec):       13.386
                            User time (sec):       12.754
                          System time (sec):        0.632
                         Elapsed time (sec):       13.745
  
                   Maximum memory used (kb):      215424.
                   Average memory used (kb):           0.
  
                          Minor page faults:       182855
                          Major page faults:            0
                 Voluntary context switches:          980
