<?xml version="1.0" encoding="ISO-8859-1"?>
<modeling>
 <generator>
  <i name="program" type="string">vasp </i>
  <i name="version" type="string">5.4.4.18Apr17-6-g9f103f2a35  </i>
  <i name="subversion" type="string">(build Aug 24 2024 05:40:03) complex            parallel </i>
  <i name="platform" type="string">IFC22_IMPI </i>
  <i name="date" type="string">2024 11 22 </i>
  <i name="time" type="string">21:38:43 </i>
 </generator>
 <incar>
  <i type="string" name="PREC">normal</i>
  <i type="int" name="ISPIN">     2</i>
  <i type="int" name="ICHARG">     2</i>
  <i type="int" name="NELM">   100</i>
  <i name="EDIFF">      0.00000100</i>
  <i type="int" name="NSW">     0</i>
  <i name="ENCUT">    300.00000000</i>
  <i name="NUPDOWN">      0.00000000</i>
  <i type="int" name="ISMEAR">     0</i>
  <i name="SIGMA">      0.20000000</i>
  <i type="logical" name="LWAVE"> F  </i>
  <i type="logical" name="LCHARG"> F  </i>
  <v type="int" name="KPOINT_BSE">    -1     0     0     0</v>
  <i type="int" name="NELM">   100</i>
 </incar>
 <structure name="primitive_cell" >
  <crystal>
   <varray name="basis" >
    <v>      15.00000000       0.00000000       0.00000000 </v>
    <v>       0.00000000      15.00000000       0.00000000 </v>
    <v>       0.00000000       0.00000000       0.80000000 </v>
   </varray>
   <i name="volume">    180.00000000 </i>
   <varray name="rec_basis" >
    <v>       0.06666667      -0.00000000       0.00000000 </v>
    <v>       0.00000000       0.06666667       0.00000000 </v>
    <v>      -0.00000000      -0.00000000       1.25000000 </v>
   </varray>
  </crystal>
  <varray name="positions" >
   <v>       0.00000000       0.00000000       0.00000000 </v>
  </varray>
 </structure>
 <varray name="primitive_index" >
  <v type="int" >        1 </v>
 </varray>
 <kpoints>
  <generation param="Gamma">
   <v type="int" name="divisions">       1        1        1 </v>
   <v name="usershift">      0.00000000       0.00000000       0.00000000 </v>
   <v name="genvec1">      1.00000000      -0.00000000       0.00000000 </v>
   <v name="genvec2">      0.00000000       1.00000000       0.00000000 </v>
   <v name="genvec3">     -0.00000000      -0.00000000       1.00000000 </v>
   <v name="shift">      0.00000000       0.00000000       0.00000000 </v>
  </generation>
  <varray name="kpointlist" >
   <v>       0.00000000       0.00000000       0.00000000 </v>
  </varray>
  <varray name="weights" >
   <v>       1.00000000 </v>
  </varray>
 </kpoints>
 <parameters>
  <separator name="general" >
   <i type="string" name="SYSTEM">unknown system</i>
   <i type="logical" name="LCOMPAT"> F  </i>
  </separator>
  <separator name="electronic" >
   <i type="string" name="PREC">normal</i>
   <i name="ENMAX">    300.00000000</i>
   <i name="ENAUG">    400.00000000</i>
   <i name="EDIFF">      0.00000100</i>
   <i type="int" name="IALGO">    38</i>
   <i type="int" name="IWAVPR">    10</i>
   <i type="int" name="NBANDS">    12</i>
   <i name="NELECT">      8.00000000</i>
   <i type="int" name="TURBO">     0</i>
   <i type="int" name="IRESTART">     0</i>
   <i type="int" name="NREBOOT">     0</i>
   <i type="int" name="NMIN">     0</i>
   <i name="EREF">      0.00000000</i>
   <separator name="electronic smearing" >
    <i type="int" name="ISMEAR">     0</i>
    <i name="SIGMA">      0.20000000</i>
    <i name="KSPACING">      0.50000000</i>
    <i type="logical" name="KGAMMA"> T  </i>
   </separator>
   <separator name="electronic projectors" >
    <i type="logical" name="LREAL"> F  </i>
    <v name="ROPT">      0.00000000</v>
    <i type="int" name="LMAXPAW">  -100</i>
    <i type="int" name="LMAXMIX">     2</i>
    <i type="logical" name="NLSPLINE"> F  </i>
   </separator>
   <separator name="electronic startup" >
    <i type="int" name="ISTART">     0</i>
    <i type="int" name="ICHARG">     2</i>
    <i type="int" name="INIWAV">     1</i>
   </separator>
   <separator name="electronic spin" >
    <i type="int" name="ISPIN">     2</i>
    <i type="logical" name="LNONCOLLINEAR"> F  </i>
    <v name="MAGMOM">      0.00000000      0.00000000      0.00000000      0.00000000      0.00000000      0.00000000      0.00000000      0.00000000</v>
    <i name="NUPDOWN">      0.00000000</i>
    <i type="logical" name="LSORBIT"> F  </i>
    <v name="SAXIS">      0.00000000      0.00000000      1.00000000</v>
    <i type="logical" name="LSPIRAL"> F  </i>
    <v name="QSPIRAL">      0.00000000      0.00000000      0.00000000</v>
    <i type="logical" name="LZEROZ"> F  </i>
   </separator>
   <separator name="electronic exchange-correlation" >
    <i type="logical" name="LASPH"> F  </i>
    <i type="logical" name="LMETAGGA"> F  </i>
   </separator>
   <separator name="electronic convergence" >
    <i type="int" name="NELM">   100</i>
    <i type="int" name="NELMDL">    -5</i>
    <i type="int" name="NELMIN">     2</i>
    <i name="ENINI">    300.00000000</i>
    <separator name="electronic convergence detail" >
     <i type="logical" name="LDIAG"> T  </i>
     <i type="logical" name="LSUBROT"> F  </i>
     <i name="WEIMIN">      0.00000000</i>
     <i name="EBREAK">      0.00000002</i>
     <i name="DEPER">      0.30000000</i>
     <i type="int" name="NRMM">     4</i>
     <i name="TIME">      0.40000000</i>
    </separator>
   </separator>
   <separator name="electronic mixer" >
    <i name="AMIX">      0.40000000</i>
    <i name="BMIX">      1.00000000</i>
    <i name="AMIN">      0.10000000</i>
    <i name="AMIX_MAG">      1.60000000</i>
    <i name="BMIX_MAG">      1.00000000</i>
    <separator name="electronic mixer details" >
     <i type="int" name="IMIX">     4</i>
     <i type="logical" name="MIXFIRST"> F  </i>
     <i type="int" name="MAXMIX">   -45</i>
     <i name="WC">    100.00000000</i>
     <i type="int" name="INIMIX">     1</i>
     <i type="int" name="MIXPRE">     1</i>
     <i type="int" name="MREMOVE">     5</i>
    </separator>
   </separator>
   <separator name="electronic dipolcorrection" >
    <i type="logical" name="LDIPOL"> F  </i>
    <i type="logical" name="LMONO"> F  </i>
    <i type="int" name="IDIPOL">     0</i>
    <i name="EPSILON">      1.00000000</i>
    <v name="DIPOL">   -100.00000000   -100.00000000   -100.00000000</v>
    <i name="EFIELD">      0.00000000</i>
   </separator>
  </separator>
  <separator name="grids" >
   <i type="int" name="NGX">    64</i>
   <i type="int" name="NGY">    64</i>
   <i type="int" name="NGZ">    28</i>
   <i type="int" name="NGXF">   128</i>
   <i type="int" name="NGYF">   128</i>
   <i type="int" name="NGZF">    56</i>
   <i type="logical" name="ADDGRID"> F  </i>
  </separator>
  <separator name="ionic" >
   <i type="int" name="NSW">     0</i>
   <i type="int" name="IBRION">    -1</i>
   <i type="int" name="MDALGO">     0</i>
   <i type="int" name="ISIF">     2</i>
   <i name="PSTRESS">      0.00000000</i>
   <i name="EDIFFG">      0.00001000</i>
   <i type="int" name="NFREE">     0</i>
   <i name="POTIM">      0.50000000</i>
   <i name="SMASS">     -3.00000000</i>
   <i name="SCALEE">      1.00000000</i>
  </separator>
  <separator name="ionic md" >
   <i name="TEBEG">      0.00010000</i>
   <i name="TEEND">      0.00010000</i>
   <i type="int" name="NBLOCK">     1</i>
   <i type="int" name="KBLOCK">     1</i>
   <i type="int" name="NPACO">   256</i>
   <i name="APACO">     16.00000000</i>
  </separator>
  <separator name="symmetry" >
   <i type="int" name="ISYM">     2</i>
   <i name="SYMPREC">      0.00001000</i>
  </separator>
  <separator name="dos" >
   <i type="int" name="LORBIT">     0</i>
   <v name="RWIGS">     -1.00000000</v>
   <i type="int" name="NEDOS">   301</i>
   <i name="EMIN">     10.00000000</i>
   <i name="EMAX">    -10.00000000</i>
   <i name="EFERMI">      0.00000000</i>
  </separator>
  <separator name="writing" >
   <i type="int" name="NWRITE">     2</i>
   <i type="logical" name="LWAVE"> F  </i>
   <i type="logical" name="LDOWNSAMPLE"> F  </i>
   <i type="logical" name="LCHARG"> F  </i>
   <i type="logical" name="LPARD"> F  </i>
   <i type="logical" name="LVTOT"> F  </i>
   <i type="logical" name="LVHAR"> F  </i>
   <i type="logical" name="LELF"> F  </i>
   <i type="logical" name="LOPTICS"> F  </i>
   <v name="STM">      0.00000000      0.00000000      0.00000000      0.00000000      0.00000000      0.00000000      0.00000000</v>
  </separator>
  <separator name="performance" >
   <i type="int" name="NPAR">     4</i>
   <i type="int" name="NSIM">     4</i>
   <i type="int" name="NBLK">    -1</i>
   <i type="logical" name="LPLANE"> T  </i>
   <i type="logical" name="LSCALAPACK"> T  </i>
   <i type="logical" name="LSCAAWARE"> F  </i>
   <i type="logical" name="LSCALU"> F  </i>
   <i type="logical" name="LASYNC"> F  </i>
   <i type="logical" name="LORBITALREAL"> F  </i>
  </separator>
  <separator name="miscellaneous" >
   <i type="int" name="IDIOT">     3</i>
   <i type="int" name="ISPECIAL">     0</i>
   <i type="logical" name="LMUSIC"> F  </i>
   <v name="POMASS">      1.00000000</v>
   <v name="DARWINR">      0.00000000</v>
   <v name="DARWINV">      1.00000000</v>
   <i type="logical" name="LCORR"> T  </i>
  </separator>
  <i type="logical" name="GGA_COMPAT"> T  </i>
  <i type="logical" name="LBERRY"> F  </i>
  <i type="int" name="ICORELEVEL">     0</i>
  <i type="logical" name="LDAU"> F  </i>
  <i type="int" name="I_CONSTRAINED_M">     0</i>
  <separator name="electronic exchange-correlation" >
   <i type="string" name="GGA">--</i>
   <i type="int" name="VOSKOWN">     0</i>
   <i type="logical" name="LHFCALC"> F  </i>
   <i type="string" name="PRECFOCK"></i>
   <i type="logical" name="LSYMGRAD"> F  </i>
   <i type="logical" name="LHFONE"> F  </i>
   <i type="logical" name="LRHFCALC"> F  </i>
   <i type="logical" name="LTHOMAS"> F  </i>
   <i type="logical" name="LMODELHF"> F  </i>
   <i name="ENCUT4O">     -1.00000000</i>
   <i type="int" name="EXXOEP">     0</i>
   <i type="int" name="FOURORBIT">     0</i>
   <i name="AEXX">      0.00000000</i>
   <i name="HFALPHA">      0.00000000</i>
   <i name="MCALPHA">      0.00000000</i>
   <i name="ALDAX">      1.00000000</i>
   <i name="AGGAX">      1.00000000</i>
   <i name="ALDAC">      1.00000000</i>
   <i name="AGGAC">      1.00000000</i>
   <i type="int" name="NKREDX">     1</i>
   <i type="int" name="NKREDY">     1</i>
   <i type="int" name="NKREDZ">     1</i>
   <i type="logical" name="SHIFTRED"> F  </i>
   <i type="logical" name="ODDONLY"> F  </i>
   <i type="logical" name="EVENONLY"> F  </i>
   <i type="int" name="LMAXFOCK">     0</i>
   <i type="int" name="NMAXFOCKAE">     0</i>
   <i type="logical" name="LFOCKAEDFT"> F  </i>
   <i name="HFSCREEN">      0.00000000</i>
   <i name="HFSCREENC">      0.00000000</i>
   <i type="int" name="NBANDSGWLOW">     0</i>
  </separator>
  <separator name="vdW DFT" >
   <i type="logical" name="LUSE_VDW"> F  </i>
   <i name="Zab_VDW">     -0.84910000</i>
   <i name="PARAM1">      0.12340000</i>
   <i name="PARAM2">      1.00000000</i>
   <i name="PARAM3">      0.00000000</i>
  </separator>
  <separator name="model GW" >
   <i type="int" name="MODEL_GW">     0</i>
   <i name="MODEL_EPS0">    108.00000000</i>
   <i name="MODEL_ALPHA">      1.00000000</i>
  </separator>
  <separator name="linear response parameters" >
   <i type="logical" name="LEPSILON"> F  </i>
   <i type="logical" name="LRPA"> F  </i>
   <i type="logical" name="LNABLA"> F  </i>
   <i type="logical" name="LVEL"> F  </i>
   <i type="int" name="KINTER">     0</i>
   <i name="CSHIFT">      0.10000000</i>
   <i name="OMEGAMAX">     -1.00000000</i>
   <i name="DEG_THRESHOLD">      0.00200000</i>
   <i name="RTIME">     -0.10000000</i>
   <i name="WPLASMAI">      0.00000000</i>
   <v name="DFIELD">      0.00000000      0.00000000      0.00000000</v>
   <v name="WPLASMA">      0.00000000      0.00000000      0.00000000      0.00000000      0.00000000      0.00000000      0.00000000      0.00000000      0.00000000</v>
  </separator>
  <separator name="orbital magnetization" >
   <i type="logical" name="NUCIND"> F  </i>
   <v name="MAGPOS">      0.00000000      0.00000000      0.00000000</v>
   <i type="logical" name="LNICSALL"> T  </i>
   <i type="logical" name="ORBITALMAG"> F  </i>
   <i type="logical" name="LMAGBLOCH"> F  </i>
   <i type="logical" name="LCHIMAG"> F  </i>
   <i type="logical" name="LGAUGE"> T  </i>
   <i type="int" name="MAGATOM">     0</i>
   <v name="MAGDIPOL">      0.00000000      0.00000000      0.00000000</v>
   <v name="AVECCONST">      0.00000000      0.00000000      0.00000000</v>
  </separator>
  <separator name="response functions" >
   <i type="logical" name="LADDER"> F  </i>
   <i type="logical" name="LRPAFORCE"> F  </i>
   <i type="logical" name="LFXC"> F  </i>
   <i type="logical" name="LHARTREE"> T  </i>
   <i type="int" name="IBSE">     0</i>
   <v type="int" name="KPOINT">    -1     0     0     0</v>
   <i type="logical" name="LTCTE"> F  </i>
   <i type="logical" name="LTETE"> F  </i>
   <i type="logical" name="LTRIPLET"> F  </i>
   <i type="logical" name="LFXCEPS"> F  </i>
   <i type="logical" name="LFXHEG"> F  </i>
   <i type="int" name="NATURALO">     2</i>
   <i type="logical" name="L2ORDER"> F  </i>
   <i type="logical" name="LMP2LT"> F  </i>
   <i type="logical" name="LUSEW"> F  </i>
   <i name="ENCUTGW">     -2.00000000</i>
   <i name="ENCUTGWSOFT">     -2.00000000</i>
   <i name="ENCUTLF">     -1.00000000</i>
   <i type="int" name="LMAXMP2">    -1</i>
   <i name="SCISSOR">      0.00000000</i>
   <i type="int" name="NOMEGA">     0</i>
   <i type="int" name="NOMEGAR">     0</i>
   <i type="int" name="NBANDSGW">    -1</i>
   <i type="int" name="NBANDSO">    -1</i>
   <i type="int" name="NBANDSV">    -1</i>
   <i type="int" name="NELM">   100</i>
   <i type="int" name="NELMHF">     1</i>
   <i type="int" name="DIM">     3</i>
   <i type="int" name="ANTIRES">     0</i>
   <i name="OMEGAMAX">    -30.00000000</i>
   <i name="OMEGAMIN">    -30.00000000</i>
   <i name="OMEGATL">   -200.00000000</i>
   <i type="int" name="OMEGAGRID">   140</i>
   <i name="CSHIFT">     -0.10000000</i>
   <i type="logical" name="SELFENERGY"> F  </i>
   <i type="logical" name="LSPECTRAL"> F  </i>
   <i type="logical" name="LSPECTRALGW"> F  </i>
   <i type="logical" name="LSINGLES"> F  </i>
   <i type="logical" name="LFERMIGW"> F  </i>
   <i type="logical" name="ODDONLYGW"> F  </i>
   <i type="logical" name="EVENONLYGW"> F  </i>
   <i type="int" name="NKREDLFX">     1</i>
   <i type="int" name="NKREDLFY">     1</i>
   <i type="int" name="NKREDLFZ">     1</i>
   <i type="int" name="MAXMEM">  2800</i>
   <i type="int" name="TELESCOPE">     0</i>
   <i type="int" name="TAUPAR">     1</i>
   <i type="int" name="OMEGAPAR">    -1</i>
   <i name="LAMBDA">      1.00000000</i>
  </separator>
  <separator name="External order field" >
   <i name="OFIELD_KAPPA">      0.00000000</i>
   <v name="OFIELD_K">      0.00000000      0.00000000      0.00000000</v>
   <i name="OFIELD_Q6_NEAR">      0.00000000</i>
   <i name="OFIELD_Q6_FAR">      0.00000000</i>
   <i name="OFIELD_A">      0.00000000</i>
  </separator>
 </parameters>
 <atominfo>
  <atoms>       8 </atoms>
  <types>       1 </types>
  <array name="atoms" >
   <dimension dim="1">ion</dimension>
   <field type="string">element</field>
   <field type="int">atomtype</field>
   <set>
    <rc><c>H </c><c>   1</c></rc>
    <rc><c>H </c><c>   1</c></rc>
    <rc><c>H </c><c>   1</c></rc>
    <rc><c>H </c><c>   1</c></rc>
    <rc><c>H </c><c>   1</c></rc>
    <rc><c>H </c><c>   1</c></rc>
    <rc><c>H </c><c>   1</c></rc>
    <rc><c>H </c><c>   1</c></rc>
   </set>
  </array>
  <array name="atomtypes" >
   <dimension dim="1">type</dimension>
   <field type="int">atomspertype</field>
   <field type="string">element</field>
   <field>mass</field>
   <field>valence</field>
   <field type="string">pseudopotential</field>
   <set>
    <rc><c>   8</c><c>H </c><c>      1.00000000</c><c>      1.00000000</c><c>  PAW_PBE H 15Jun2001                   </c></rc>
   </set>
  </array>
 </atominfo>
 <structure name="initialpos" >
  <crystal>
   <varray name="basis" >
    <v>      15.00000000       0.00000000       0.00000000 </v>
    <v>       0.00000000      15.00000000       0.00000000 </v>
    <v>       0.00000000       0.00000000       6.40000000 </v>
   </varray>
   <i name="volume">   1440.00000000 </i>
   <varray name="rec_basis" >
    <v>       0.06666667      -0.00000000       0.00000000 </v>
    <v>       0.00000000       0.06666667       0.00000000 </v>
    <v>      -0.00000000      -0.00000000       0.15625000 </v>
   </varray>
  </crystal>
  <varray name="positions" >
   <v>       0.00000000       0.00000000       0.00000000 </v>
   <v>       0.00000000       0.00000000       0.12500000 </v>
   <v>       0.00000000       0.00000000       0.25000000 </v>
   <v>       0.00000000       0.00000000       0.37500000 </v>
   <v>       0.00000000       0.00000000       0.50000000 </v>
   <v>       0.00000000       0.00000000       0.62500000 </v>
   <v>       0.00000000       0.00000000       0.75000000 </v>
   <v>       0.00000000       0.00000000       0.87500000 </v>
  </varray>
 </structure>
 <calculation>
  <scstep>
   <time name="dav">    0.23    0.23</time>
   <time name="total">    0.55    0.55</time>
   <energy>
    <i name="alphaZ">      0.10827411 </i>
    <i name="ewald">    216.67781545 </i>
    <i name="hartreedc">   -233.21899237 </i>
    <i name="XCdc">     20.08621788 </i>
    <i name="pawpsdc">     17.07221949 </i>
    <i name="pawaedc">    -17.14324176 </i>
    <i name="eentropy">     -0.01912047 </i>
    <i name="bandstr">   -104.11114023 </i>
    <i name="atom">     99.56620307 </i>
    <i name="e_fr_energy">     -0.98176484 </i>
    <i name="e_wo_entrp">     -0.96264437 </i>
    <i name="e_0_energy">     -0.97220461 </i>
   </energy>
  </scstep>
  <scstep>
   <time name="dav">    0.18    0.18</time>
   <time name="total">    0.18    0.18</time>
   <energy>
    <i name="e_fr_energy">    -18.67221189 </i>
    <i name="e_wo_entrp">    -18.67221189 </i>
    <i name="e_0_energy">    -18.67221189 </i>
   </energy>
  </scstep>
  <scstep>
   <time name="dav">    0.23    0.23</time>
   <time name="total">    0.23    0.23</time>
   <energy>
    <i name="e_fr_energy">    -19.11848921 </i>
    <i name="e_wo_entrp">    -19.06070193 </i>
    <i name="e_0_energy">    -19.08959557 </i>
   </energy>
  </scstep>
  <scstep>
   <time name="dav">    0.18    0.18</time>
   <time name="total">    0.18    0.18</time>
   <energy>
    <i name="e_fr_energy">    -19.32287524 </i>
    <i name="e_wo_entrp">    -19.09729610 </i>
    <i name="e_0_energy">    -19.21008567 </i>
   </energy>
  </scstep>
  <scstep>
   <time name="dav">    0.16    0.16</time>
   <time name="total">    0.26    0.26</time>
   <energy>
    <i name="e_fr_energy">    -19.33013043 </i>
    <i name="e_wo_entrp">    -19.10445478 </i>
    <i name="e_0_energy">    -19.21729261 </i>
   </energy>
  </scstep>
  <scstep>
   <time name="dav">    0.17    0.18</time>
   <time name="total">    0.59    0.61</time>
   <energy>
    <i name="e_fr_energy">    -17.48313723 </i>
    <i name="e_wo_entrp">    -17.25746140 </i>
    <i name="e_0_energy">    -17.37029931 </i>
   </energy>
  </scstep>
  <scstep>
   <time name="dav">    0.19    0.19</time>
   <time name="total">    0.61    0.61</time>
   <energy>
    <i name="e_fr_energy">    -16.23798358 </i>
    <i name="e_wo_entrp">    -16.01230775 </i>
    <i name="e_0_energy">    -16.12514567 </i>
   </energy>
  </scstep>
  <scstep>
   <time name="dav">    0.16    0.16</time>
   <time name="total">    0.59    0.59</time>
   <energy>
    <i name="e_fr_energy">    -16.21960969 </i>
    <i name="e_wo_entrp">    -15.99393386 </i>
    <i name="e_0_energy">    -16.10677177 </i>
   </energy>
  </scstep>
  <scstep>
   <time name="dav">    0.18    0.18</time>
   <time name="total">    0.61    0.61</time>
   <energy>
    <i name="e_fr_energy">    -16.20731947 </i>
    <i name="e_wo_entrp">    -15.98164320 </i>
    <i name="e_0_energy">    -16.09448133 </i>
   </energy>
  </scstep>
  <scstep>
   <time name="dav">    0.17    0.17</time>
   <time name="total">    0.62    0.61</time>
   <energy>
    <i name="e_fr_energy">    -16.21625174 </i>
    <i name="e_wo_entrp">    -15.99057396 </i>
    <i name="e_0_energy">    -16.10341285 </i>
   </energy>
  </scstep>
  <scstep>
   <time name="dav">    0.17    0.17</time>
   <time name="total">    0.60    0.60</time>
   <energy>
    <i name="e_fr_energy">    -16.21954493 </i>
    <i name="e_wo_entrp">    -15.99386779 </i>
    <i name="e_0_energy">    -16.10670636 </i>
   </energy>
  </scstep>
  <scstep>
   <time name="dav">    0.18    0.18</time>
   <time name="total">    0.61    0.61</time>
   <energy>
    <i name="e_fr_energy">    -16.22720822 </i>
    <i name="e_wo_entrp">    -16.00153233 </i>
    <i name="e_0_energy">    -16.11437027 </i>
   </energy>
  </scstep>
  <scstep>
   <time name="dav">    0.16    0.16</time>
   <time name="total">    0.59    0.59</time>
   <energy>
    <i name="e_fr_energy">    -16.22887235 </i>
    <i name="e_wo_entrp">    -16.00319651 </i>
    <i name="e_0_energy">    -16.11603443 </i>
   </energy>
  </scstep>
  <scstep>
   <time name="dav">    0.16    0.16</time>
   <time name="total">    0.59    0.59</time>
   <energy>
    <i name="e_fr_energy">    -16.22947622 </i>
    <i name="e_wo_entrp">    -16.00380039 </i>
    <i name="e_0_energy">    -16.11663831 </i>
   </energy>
  </scstep>
  <scstep>
   <time name="dav">    0.16    0.16</time>
   <time name="total">    0.60    0.59</time>
   <energy>
    <i name="e_fr_energy">    -16.23036591 </i>
    <i name="e_wo_entrp">    -16.00469008 </i>
    <i name="e_0_energy">    -16.11752799 </i>
   </energy>
  </scstep>
  <scstep>
   <time name="dav">    0.16    0.16</time>
   <time name="total">    0.59    0.59</time>
   <energy>
    <i name="e_fr_energy">    -16.23042804 </i>
    <i name="e_wo_entrp">    -16.00475221 </i>
    <i name="e_0_energy">    -16.11759012 </i>
   </energy>
  </scstep>
  <scstep>
   <time name="dav">    0.16    0.16</time>
   <time name="total">    0.60    0.60</time>
   <energy>
    <i name="e_fr_energy">    -16.23055495 </i>
    <i name="e_wo_entrp">    -16.00487911 </i>
    <i name="e_0_energy">    -16.11771703 </i>
   </energy>
  </scstep>
  <scstep>
   <time name="dav">    0.16    0.16</time>
   <time name="total">    0.59    0.59</time>
   <energy>
    <i name="e_fr_energy">    -16.23057151 </i>
    <i name="e_wo_entrp">    -16.00489567 </i>
    <i name="e_0_energy">    -16.11773359 </i>
   </energy>
  </scstep>
  <scstep>
   <time name="dav">    0.16    0.16</time>
   <time name="total">    0.59    0.59</time>
   <energy>
    <i name="e_fr_energy">    -16.23057898 </i>
    <i name="e_wo_entrp">    -16.00490314 </i>
    <i name="e_0_energy">    -16.11774106 </i>
   </energy>
  </scstep>
  <scstep>
   <time name="dav">    0.16    0.16</time>
   <time name="total">    0.60    0.60</time>
   <energy>
    <i name="e_fr_energy">    -16.23058562 </i>
    <i name="e_wo_entrp">    -16.00490979 </i>
    <i name="e_0_energy">    -16.11774770 </i>
   </energy>
  </scstep>
  <scstep>
   <time name="dav">    0.16    0.16</time>
   <time name="total">    0.60    0.60</time>
   <energy>
    <i name="e_fr_energy">    -16.23058735 </i>
    <i name="e_wo_entrp">    -16.00491152 </i>
    <i name="e_0_energy">    -16.11774944 </i>
   </energy>
  </scstep>
  <scstep>
   <time name="dav">    0.17    0.17</time>
   <time name="total">    0.61    0.61</time>
   <energy>
    <i name="e_fr_energy">    -16.23058948 </i>
    <i name="e_wo_entrp">    -16.00491365 </i>
    <i name="e_0_energy">    -16.11775157 </i>
   </energy>
  </scstep>
  <scstep>
   <time name="dav">    0.17    0.17</time>
   <time name="total">    0.50    0.50</time>
   <energy>
    <i name="alphaZ">      0.10827411 </i>
    <i name="ewald">    216.67781545 </i>
    <i name="hartreedc">   -274.67303431 </i>
    <i name="XCdc">     23.91182905 </i>
    <i name="pawpsdc">    155.68411458 </i>
    <i name="pawaedc">   -155.92678883 </i>
    <i name="eentropy">     -0.22567583 </i>
    <i name="bandstr">    -81.35332760 </i>
    <i name="atom">     99.56620307 </i>
    <i name="e_fr_energy">    -16.23059030 </i>
    <i name="e_wo_entrp">    -16.00491447 </i>
    <i name="e_0_energy">    -16.11775239 </i>
   </energy>
  </scstep>
  <structure>
   <crystal>
    <varray name="basis" >
     <v>      15.00000000       0.00000000       0.00000000 </v>
     <v>       0.00000000      15.00000000       0.00000000 </v>
     <v>       0.00000000       0.00000000       6.40000000 </v>
    </varray>
    <i name="volume">   1440.00000000 </i>
    <varray name="rec_basis" >
     <v>       0.06666667      -0.00000000       0.00000000 </v>
     <v>       0.00000000       0.06666667       0.00000000 </v>
     <v>      -0.00000000      -0.00000000       0.15625000 </v>
    </varray>
   </crystal>
   <varray name="positions" >
    <v>       0.00000000       0.00000000       0.00000000 </v>
    <v>       0.00000000       0.00000000       0.12500000 </v>
    <v>       0.00000000       0.00000000       0.25000000 </v>
    <v>       0.00000000       0.00000000       0.37500000 </v>
    <v>       0.00000000       0.00000000       0.50000000 </v>
    <v>       0.00000000       0.00000000       0.62500000 </v>
    <v>       0.00000000       0.00000000       0.75000000 </v>
    <v>       0.00000000       0.00000000       0.87500000 </v>
   </varray>
  </structure>
  <varray name="forces" >
   <v>       0.00000000       0.00000000       0.00000000 </v>
   <v>      -0.00000000      -0.00000000      -0.00000000 </v>
   <v>      -0.00000000      -0.00000000      -0.00000000 </v>
   <v>       0.00000000      -0.00000000       0.00000000 </v>
   <v>      -0.00000000      -0.00000000      -0.00000000 </v>
   <v>       0.00000000       0.00000000      -0.00000000 </v>
   <v>       0.00000000      -0.00000000      -0.00000000 </v>
   <v>      -0.00000000       0.00000000       0.00000000 </v>
  </varray>
  <varray name="stress" >
   <v>      -1.61513038      -0.00000000      -0.00000000 </v>
   <v>      -0.00000000      -1.61513038      -0.00000000 </v>
   <v>      -0.00000000      -0.00000000      43.27802307 </v>
  </varray>
  <energy>
   <i name="e_fr_energy">    -16.23059030 </i>
   <i name="e_wo_entrp">    -16.11775239 </i>
   <i name="e_0_energy">     -0.22567583 </i>
  </energy>
  <time name="totalsc">   12.75   12.77</time>
  <eigenvalues>
   <array>
    <dimension dim="1">band</dimension>
    <dimension dim="2">kpoint</dimension>
    <dimension dim="3">spin</dimension>
    <field>eigene</field>
    <field>occ</field>
    <set>
     <set comment="spin 1">
      <set comment="kpoint 1">
       <r>  -15.6469    1.0000 </r>
       <r>  -11.9863    1.0000 </r>
       <r>  -11.9863    1.0000 </r>
       <r>   -1.0572    0.5000 </r>
       <r>   -1.0572    0.5000 </r>
       <r>   -0.1337    0.0000 </r>
       <r>   -0.0886    0.0000 </r>
       <r>   -0.0886    0.0000 </r>
       <r>    0.5634    0.0000 </r>
       <r>    0.5652    0.0000 </r>
       <r>    0.9188    0.0000 </r>
       <r>    0.9188    0.0000 </r>
      </set>
     </set>
     <set comment="spin 2">
      <set comment="kpoint 1">
       <r>  -15.6469    1.0000 </r>
       <r>  -11.9863    1.0000 </r>
       <r>  -11.9863    1.0000 </r>
       <r>   -1.0572    0.5000 </r>
       <r>   -1.0572    0.5000 </r>
       <r>   -0.1334    0.0000 </r>
       <r>   -0.0871    0.0000 </r>
       <r>   -0.0871    0.0000 </r>
       <r>    0.5606    0.0000 </r>
       <r>    0.5635    0.0000 </r>
       <r>    0.9148    0.0000 </r>
       <r>    0.9148    0.0000 </r>
      </set>
     </set>
    </set>
   </array>
  </eigenvalues>
  <separator name="orbital magnetization" >
   <v name="MAGDIPOLOUT">      0.00000000      0.00000000      0.00000000</v>
  </separator>
  <dos>
   <i name="efermi">     -1.05722013 </i>
   <total>
    <array>
     <dimension dim="1">gridpoints</dimension>
     <dimension dim="2">spin</dimension>
     <field>energy</field>
     <field>total</field>
     <field>integrated</field>
     <set>
      <set comment="spin 1">
       <r>   -17.6469     0.0000     0.0000 </r>
       <r>   -17.5784     0.0000     0.0000 </r>
       <r>   -17.5098     0.0000     0.0000 </r>
       <r>   -17.4413     0.0000     0.0000 </r>
       <r>   -17.3727     0.0000     0.0000 </r>
       <r>   -17.3042     0.0000     0.0000 </r>
       <r>   -17.2356     0.0000     0.0000 </r>
       <r>   -17.1670     0.0000     0.0000 </r>
       <r>   -17.0985     0.0000     0.0000 </r>
       <r>   -17.0299     0.0000     0.0000 </r>
       <r>   -16.9614     0.0000     0.0000 </r>
       <r>   -16.8928     0.0000     0.0000 </r>
       <r>   -16.8243     0.0000     0.0000 </r>
       <r>   -16.7557     0.0000     0.0000 </r>
       <r>   -16.6872     0.0000     0.0000 </r>
       <r>   -16.6186     0.0000     0.0000 </r>
       <r>   -16.5501     0.0000     0.0000 </r>
       <r>   -16.4815     0.0000     0.0000 </r>
       <r>   -16.4130     0.0000     0.0000 </r>
       <r>   -16.3444     0.0000     0.0000 </r>
       <r>   -16.2759     0.0001     0.0000 </r>
       <r>   -16.2073     0.0010     0.0001 </r>
       <r>   -16.1388     0.0063     0.0005 </r>
       <r>   -16.0702     0.0329     0.0028 </r>
       <r>   -16.0017     0.1366     0.0121 </r>
       <r>   -15.9331     0.4504     0.0430 </r>
       <r>   -15.8646     1.1789     0.1238 </r>
       <r>   -15.7960     2.4503     0.2918 </r>
       <r>   -15.7274     4.0444     0.5690 </r>
       <r>   -15.6589     5.3016     0.9325 </r>
       <r>   -15.5903     5.5195     1.3109 </r>
       <r>   -15.5218     4.5638     1.6237 </r>
       <r>   -15.4532     2.9969     1.8292 </r>
       <r>   -15.3847     1.5629     1.9363 </r>
       <r>   -15.3161     0.6472     1.9807 </r>
       <r>   -15.2476     0.2128     1.9953 </r>
       <r>   -15.1790     0.0556     1.9991 </r>
       <r>   -15.1105     0.0115     1.9999 </r>
       <r>   -15.0419     0.0019     2.0000 </r>
       <r>   -14.9734     0.0002     2.0000 </r>
       <r>   -14.9048     0.0000     2.0000 </r>
       <r>   -14.8363     0.0000     2.0000 </r>
       <r>   -14.7677     0.0000     2.0000 </r>
       <r>   -14.6992     0.0000     2.0000 </r>
       <r>   -14.6306     0.0000     2.0000 </r>
       <r>   -14.5621     0.0000     2.0000 </r>
       <r>   -14.4935     0.0000     2.0000 </r>
       <r>   -14.4250     0.0000     2.0000 </r>
       <r>   -14.3564     0.0000     2.0000 </r>
       <r>   -14.2878     0.0000     2.0000 </r>
       <r>   -14.2193     0.0000     2.0000 </r>
       <r>   -14.1507     0.0000     2.0000 </r>
       <r>   -14.0822     0.0000     2.0000 </r>
       <r>   -14.0136     0.0000     2.0000 </r>
       <r>   -13.9451     0.0000     2.0000 </r>
       <r>   -13.8765     0.0000     2.0000 </r>
       <r>   -13.8080     0.0000     2.0000 </r>
       <r>   -13.7394     0.0000     2.0000 </r>
       <r>   -13.6709     0.0000     2.0000 </r>
       <r>   -13.6023     0.0000     2.0000 </r>
       <r>   -13.5338     0.0000     2.0000 </r>
       <r>   -13.4652     0.0000     2.0000 </r>
       <r>   -13.3967     0.0000     2.0000 </r>
       <r>   -13.3281     0.0000     2.0000 </r>
       <r>   -13.2596     0.0000     2.0000 </r>
       <r>   -13.1910     0.0000     2.0000 </r>
       <r>   -13.1225     0.0000     2.0000 </r>
       <r>   -13.0539     0.0000     2.0000 </r>
       <r>   -12.9854     0.0000     2.0000 </r>
       <r>   -12.9168     0.0000     2.0000 </r>
       <r>   -12.8482     0.0000     2.0000 </r>
       <r>   -12.7797     0.0000     2.0000 </r>
       <r>   -12.7111     0.0000     2.0000 </r>
       <r>   -12.6426     0.0001     2.0000 </r>
       <r>   -12.5740     0.0008     2.0001 </r>
       <r>   -12.5055     0.0061     2.0005 </r>
       <r>   -12.4369     0.0349     2.0029 </r>
       <r>   -12.3684     0.1591     2.0138 </r>
       <r>   -12.2998     0.5752     2.0532 </r>
       <r>   -12.2313     1.6507     2.1664 </r>
       <r>   -12.1627     3.7616     2.4242 </r>
       <r>   -12.0942     6.8074     2.8909 </r>
       <r>   -12.0256     9.7836     3.5616 </r>
       <r>   -11.9571    11.1672     4.3271 </r>
       <r>   -11.8885    10.1234     5.0211 </r>
       <r>   -11.8200     7.2885     5.5208 </r>
       <r>   -11.7514     4.1674     5.8064 </r>
       <r>   -11.6829     1.8923     5.9362 </r>
       <r>   -11.6143     0.6823     5.9829 </r>
       <r>   -11.5458     0.1953     5.9963 </r>
       <r>   -11.4772     0.0444     5.9994 </r>
       <r>   -11.4086     0.0080     5.9999 </r>
       <r>   -11.3401     0.0011     6.0000 </r>
       <r>   -11.2715     0.0001     6.0000 </r>
       <r>   -11.2030     0.0000     6.0000 </r>
       <r>   -11.1344     0.0000     6.0000 </r>
       <r>   -11.0659     0.0000     6.0000 </r>
       <r>   -10.9973     0.0000     6.0000 </r>
       <r>   -10.9288     0.0000     6.0000 </r>
       <r>   -10.8602     0.0000     6.0000 </r>
       <r>   -10.7917     0.0000     6.0000 </r>
       <r>   -10.7231     0.0000     6.0000 </r>
       <r>   -10.6546     0.0000     6.0000 </r>
       <r>   -10.5860     0.0000     6.0000 </r>
       <r>   -10.5175     0.0000     6.0000 </r>
       <r>   -10.4489     0.0000     6.0000 </r>
       <r>   -10.3804     0.0000     6.0000 </r>
       <r>   -10.3118     0.0000     6.0000 </r>
       <r>   -10.2433     0.0000     6.0000 </r>
       <r>   -10.1747     0.0000     6.0000 </r>
       <r>   -10.1062     0.0000     6.0000 </r>
       <r>   -10.0376     0.0000     6.0000 </r>
       <r>    -9.9690     0.0000     6.0000 </r>
       <r>    -9.9005     0.0000     6.0000 </r>
       <r>    -9.8319     0.0000     6.0000 </r>
       <r>    -9.7634     0.0000     6.0000 </r>
       <r>    -9.6948     0.0000     6.0000 </r>
       <r>    -9.6263     0.0000     6.0000 </r>
       <r>    -9.5577     0.0000     6.0000 </r>
       <r>    -9.4892     0.0000     6.0000 </r>
       <r>    -9.4206     0.0000     6.0000 </r>
       <r>    -9.3521     0.0000     6.0000 </r>
       <r>    -9.2835     0.0000     6.0000 </r>
       <r>    -9.2150     0.0000     6.0000 </r>
       <r>    -9.1464     0.0000     6.0000 </r>
       <r>    -9.0779     0.0000     6.0000 </r>
       <r>    -9.0093     0.0000     6.0000 </r>
       <r>    -8.9408     0.0000     6.0000 </r>
       <r>    -8.8722     0.0000     6.0000 </r>
       <r>    -8.8037     0.0000     6.0000 </r>
       <r>    -8.7351     0.0000     6.0000 </r>
       <r>    -8.6666     0.0000     6.0000 </r>
       <r>    -8.5980     0.0000     6.0000 </r>
       <r>    -8.5295     0.0000     6.0000 </r>
       <r>    -8.4609     0.0000     6.0000 </r>
       <r>    -8.3923     0.0000     6.0000 </r>
       <r>    -8.3238     0.0000     6.0000 </r>
       <r>    -8.2552     0.0000     6.0000 </r>
       <r>    -8.1867     0.0000     6.0000 </r>
       <r>    -8.1181     0.0000     6.0000 </r>
       <r>    -8.0496     0.0000     6.0000 </r>
       <r>    -7.9810     0.0000     6.0000 </r>
       <r>    -7.9125     0.0000     6.0000 </r>
       <r>    -7.8439     0.0000     6.0000 </r>
       <r>    -7.7754     0.0000     6.0000 </r>
       <r>    -7.7068     0.0000     6.0000 </r>
       <r>    -7.6383     0.0000     6.0000 </r>
       <r>    -7.5697     0.0000     6.0000 </r>
       <r>    -7.5012     0.0000     6.0000 </r>
       <r>    -7.4326     0.0000     6.0000 </r>
       <r>    -7.3641     0.0000     6.0000 </r>
       <r>    -7.2955     0.0000     6.0000 </r>
       <r>    -7.2270     0.0000     6.0000 </r>
       <r>    -7.1584     0.0000     6.0000 </r>
       <r>    -7.0899     0.0000     6.0000 </r>
       <r>    -7.0213     0.0000     6.0000 </r>
       <r>    -6.9527     0.0000     6.0000 </r>
       <r>    -6.8842     0.0000     6.0000 </r>
       <r>    -6.8156     0.0000     6.0000 </r>
       <r>    -6.7471     0.0000     6.0000 </r>
       <r>    -6.6785     0.0000     6.0000 </r>
       <r>    -6.6100     0.0000     6.0000 </r>
       <r>    -6.5414     0.0000     6.0000 </r>
       <r>    -6.4729     0.0000     6.0000 </r>
       <r>    -6.4043     0.0000     6.0000 </r>
       <r>    -6.3358     0.0000     6.0000 </r>
       <r>    -6.2672     0.0000     6.0000 </r>
       <r>    -6.1987     0.0000     6.0000 </r>
       <r>    -6.1301     0.0000     6.0000 </r>
       <r>    -6.0616     0.0000     6.0000 </r>
       <r>    -5.9930     0.0000     6.0000 </r>
       <r>    -5.9245     0.0000     6.0000 </r>
       <r>    -5.8559     0.0000     6.0000 </r>
       <r>    -5.7874     0.0000     6.0000 </r>
       <r>    -5.7188     0.0000     6.0000 </r>
       <r>    -5.6503     0.0000     6.0000 </r>
       <r>    -5.5817     0.0000     6.0000 </r>
       <r>    -5.5131     0.0000     6.0000 </r>
       <r>    -5.4446     0.0000     6.0000 </r>
       <r>    -5.3760     0.0000     6.0000 </r>
       <r>    -5.3075     0.0000     6.0000 </r>
       <r>    -5.2389     0.0000     6.0000 </r>
       <r>    -5.1704     0.0000     6.0000 </r>
       <r>    -5.1018     0.0000     6.0000 </r>
       <r>    -5.0333     0.0000     6.0000 </r>
       <r>    -4.9647     0.0000     6.0000 </r>
       <r>    -4.8962     0.0000     6.0000 </r>
       <r>    -4.8276     0.0000     6.0000 </r>
       <r>    -4.7591     0.0000     6.0000 </r>
       <r>    -4.6905     0.0000     6.0000 </r>
       <r>    -4.6220     0.0000     6.0000 </r>
       <r>    -4.5534     0.0000     6.0000 </r>
       <r>    -4.4849     0.0000     6.0000 </r>
       <r>    -4.4163     0.0000     6.0000 </r>
       <r>    -4.3478     0.0000     6.0000 </r>
       <r>    -4.2792     0.0000     6.0000 </r>
       <r>    -4.2107     0.0000     6.0000 </r>
       <r>    -4.1421     0.0000     6.0000 </r>
       <r>    -4.0735     0.0000     6.0000 </r>
       <r>    -4.0050     0.0000     6.0000 </r>
       <r>    -3.9364     0.0000     6.0000 </r>
       <r>    -3.8679     0.0000     6.0000 </r>
       <r>    -3.7993     0.0000     6.0000 </r>
       <r>    -3.7308     0.0000     6.0000 </r>
       <r>    -3.6622     0.0000     6.0000 </r>
       <r>    -3.5937     0.0000     6.0000 </r>
       <r>    -3.5251     0.0000     6.0000 </r>
       <r>    -3.4566     0.0000     6.0000 </r>
       <r>    -3.3880     0.0000     6.0000 </r>
       <r>    -3.3195     0.0000     6.0000 </r>
       <r>    -3.2509     0.0000     6.0000 </r>
       <r>    -3.1824     0.0000     6.0000 </r>
       <r>    -3.1138     0.0000     6.0000 </r>
       <r>    -3.0453     0.0000     6.0000 </r>
       <r>    -2.9767     0.0000     6.0000 </r>
       <r>    -2.9082     0.0000     6.0000 </r>
       <r>    -2.8396     0.0000     6.0000 </r>
       <r>    -2.7711     0.0000     6.0000 </r>
       <r>    -2.7025     0.0000     6.0000 </r>
       <r>    -2.6339     0.0000     6.0000 </r>
       <r>    -2.5654     0.0000     6.0000 </r>
       <r>    -2.4968     0.0000     6.0000 </r>
       <r>    -2.4283     0.0000     6.0000 </r>
       <r>    -2.3597     0.0000     6.0000 </r>
       <r>    -2.2912     0.0000     6.0000 </r>
       <r>    -2.2226     0.0000     6.0000 </r>
       <r>    -2.1541     0.0000     6.0000 </r>
       <r>    -2.0855     0.0000     6.0000 </r>
       <r>    -2.0170     0.0000     6.0000 </r>
       <r>    -1.9484     0.0000     6.0000 </r>
       <r>    -1.8799     0.0000     6.0000 </r>
       <r>    -1.8113     0.0000     6.0000 </r>
       <r>    -1.7428     0.0000     6.0000 </r>
       <r>    -1.6742     0.0003     6.0000 </r>
       <r>    -1.6057     0.0027     6.0002 </r>
       <r>    -1.5371     0.0171     6.0014 </r>
       <r>    -1.4686     0.0858     6.0073 </r>
       <r>    -1.4000     0.3421     6.0307 </r>
       <r>    -1.3315     1.0833     6.1050 </r>
       <r>    -1.2629     2.7236     6.2917 </r>
       <r>    -1.1943     5.4377     6.6645 </r>
       <r>    -1.1258     8.6217     7.2555 </r>
       <r>    -1.0572    10.8566     7.9997 </r>
       <r>    -0.9887    10.8575     8.7440 </r>
       <r>    -0.9201     8.6238     9.3352 </r>
       <r>    -0.8516     5.4399     9.7081 </r>
       <r>    -0.7830     2.7252     9.8950 </r>
       <r>    -0.7145     1.0848     9.9693 </r>
       <r>    -0.6459     0.3482     9.9932 </r>
       <r>    -0.5774     0.1201    10.0014 </r>
       <r>    -0.5088     0.1792    10.0137 </r>
       <r>    -0.4403     0.6158    10.0559 </r>
       <r>    -0.3717     1.8520    10.1829 </r>
       <r>    -0.3032     4.4664    10.4891 </r>
       <r>    -0.2346     8.6040    11.0789 </r>
       <r>    -0.1661    13.2367    11.9863 </r>
       <r>    -0.0975    16.2605    13.1010 </r>
       <r>    -0.0290    15.9476    14.1942 </r>
       <r>     0.0396    12.4874    15.0503 </r>
       <r>     0.1081     7.8260    15.5867 </r>
       <r>     0.1767     4.0250    15.8627 </r>
       <r>     0.2453     2.0654    16.0043 </r>
       <r>     0.3138     2.0186    16.1426 </r>
       <r>     0.3824     3.6786    16.3948 </r>
       <r>     0.4509     6.5949    16.8469 </r>
       <r>     0.5195     9.6996    17.5118 </r>
       <r>     0.5880    11.5697    18.3050 </r>
       <r>     0.6566    11.5845    19.0991 </r>
       <r>     0.7251    10.6722    19.8307 </r>
       <r>     0.7937    10.3891    20.5429 </r>
       <r>     0.8622    11.1605    21.3080 </r>
       <r>     0.9308    11.7856    22.1159 </r>
       <r>     0.9993    10.8210    22.8577 </r>
       <r>     1.0679     8.1392    23.4157 </r>
       <r>     1.1364     4.9098    23.7523 </r>
       <r>     1.2050     2.3591    23.9140 </r>
       <r>     1.2735     0.9010    23.9757 </r>
       <r>     1.3421     0.2733    23.9945 </r>
       <r>     1.4106     0.0658    23.9990 </r>
       <r>     1.4792     0.0126    23.9999 </r>
       <r>     1.5477     0.0019    24.0000 </r>
       <r>     1.6163     0.0002    24.0000 </r>
       <r>     1.6849     0.0000    24.0000 </r>
       <r>     1.7534     0.0000    24.0000 </r>
       <r>     1.8220     0.0000    24.0000 </r>
       <r>     1.8905     0.0000    24.0000 </r>
       <r>     1.9591     0.0000    24.0000 </r>
       <r>     2.0276     0.0000    24.0000 </r>
       <r>     2.0962     0.0000    24.0000 </r>
       <r>     2.1647     0.0000    24.0000 </r>
       <r>     2.2333     0.0000    24.0000 </r>
       <r>     2.3018     0.0000    24.0000 </r>
       <r>     2.3704     0.0000    24.0000 </r>
       <r>     2.4389     0.0000    24.0000 </r>
       <r>     2.5075     0.0000    24.0000 </r>
       <r>     2.5760     0.0000    24.0000 </r>
       <r>     2.6446     0.0000    24.0000 </r>
       <r>     2.7131     0.0000    24.0000 </r>
       <r>     2.7817     0.0000    24.0000 </r>
       <r>     2.8502     0.0000    24.0000 </r>
       <r>     2.9188     0.0000    24.0000 </r>
      </set>
      <set comment="spin 2">
       <r>   -17.6469     0.0000     0.0000 </r>
       <r>   -17.5784     0.0000     0.0000 </r>
       <r>   -17.5098     0.0000     0.0000 </r>
       <r>   -17.4413     0.0000     0.0000 </r>
       <r>   -17.3727     0.0000     0.0000 </r>
       <r>   -17.3042     0.0000     0.0000 </r>
       <r>   -17.2356     0.0000     0.0000 </r>
       <r>   -17.1670     0.0000     0.0000 </r>
       <r>   -17.0985     0.0000     0.0000 </r>
       <r>   -17.0299     0.0000     0.0000 </r>
       <r>   -16.9614     0.0000     0.0000 </r>
       <r>   -16.8928     0.0000     0.0000 </r>
       <r>   -16.8243     0.0000     0.0000 </r>
       <r>   -16.7557     0.0000     0.0000 </r>
       <r>   -16.6872     0.0000     0.0000 </r>
       <r>   -16.6186     0.0000     0.0000 </r>
       <r>   -16.5501     0.0000     0.0000 </r>
       <r>   -16.4815     0.0000     0.0000 </r>
       <r>   -16.4130     0.0000     0.0000 </r>
       <r>   -16.3444     0.0000     0.0000 </r>
       <r>   -16.2759     0.0001     0.0000 </r>
       <r>   -16.2073     0.0010     0.0001 </r>
       <r>   -16.1388     0.0063     0.0005 </r>
       <r>   -16.0702     0.0329     0.0028 </r>
       <r>   -16.0017     0.1366     0.0121 </r>
       <r>   -15.9331     0.4504     0.0430 </r>
       <r>   -15.8646     1.1789     0.1238 </r>
       <r>   -15.7960     2.4503     0.2918 </r>
       <r>   -15.7274     4.0444     0.5690 </r>
       <r>   -15.6589     5.3016     0.9325 </r>
       <r>   -15.5903     5.5195     1.3109 </r>
       <r>   -15.5218     4.5638     1.6237 </r>
       <r>   -15.4532     2.9969     1.8292 </r>
       <r>   -15.3847     1.5629     1.9363 </r>
       <r>   -15.3161     0.6472     1.9807 </r>
       <r>   -15.2476     0.2128     1.9953 </r>
       <r>   -15.1790     0.0556     1.9991 </r>
       <r>   -15.1105     0.0115     1.9999 </r>
       <r>   -15.0419     0.0019     2.0000 </r>
       <r>   -14.9734     0.0002     2.0000 </r>
       <r>   -14.9048     0.0000     2.0000 </r>
       <r>   -14.8363     0.0000     2.0000 </r>
       <r>   -14.7677     0.0000     2.0000 </r>
       <r>   -14.6992     0.0000     2.0000 </r>
       <r>   -14.6306     0.0000     2.0000 </r>
       <r>   -14.5621     0.0000     2.0000 </r>
       <r>   -14.4935     0.0000     2.0000 </r>
       <r>   -14.4250     0.0000     2.0000 </r>
       <r>   -14.3564     0.0000     2.0000 </r>
       <r>   -14.2878     0.0000     2.0000 </r>
       <r>   -14.2193     0.0000     2.0000 </r>
       <r>   -14.1507     0.0000     2.0000 </r>
       <r>   -14.0822     0.0000     2.0000 </r>
       <r>   -14.0136     0.0000     2.0000 </r>
       <r>   -13.9451     0.0000     2.0000 </r>
       <r>   -13.8765     0.0000     2.0000 </r>
       <r>   -13.8080     0.0000     2.0000 </r>
       <r>   -13.7394     0.0000     2.0000 </r>
       <r>   -13.6709     0.0000     2.0000 </r>
       <r>   -13.6023     0.0000     2.0000 </r>
       <r>   -13.5338     0.0000     2.0000 </r>
       <r>   -13.4652     0.0000     2.0000 </r>
       <r>   -13.3967     0.0000     2.0000 </r>
       <r>   -13.3281     0.0000     2.0000 </r>
       <r>   -13.2596     0.0000     2.0000 </r>
       <r>   -13.1910     0.0000     2.0000 </r>
       <r>   -13.1225     0.0000     2.0000 </r>
       <r>   -13.0539     0.0000     2.0000 </r>
       <r>   -12.9854     0.0000     2.0000 </r>
       <r>   -12.9168     0.0000     2.0000 </r>
       <r>   -12.8482     0.0000     2.0000 </r>
       <r>   -12.7797     0.0000     2.0000 </r>
       <r>   -12.7111     0.0000     2.0000 </r>
       <r>   -12.6426     0.0001     2.0000 </r>
       <r>   -12.5740     0.0008     2.0001 </r>
       <r>   -12.5055     0.0061     2.0005 </r>
       <r>   -12.4369     0.0349     2.0029 </r>
       <r>   -12.3684     0.1591     2.0138 </r>
       <r>   -12.2998     0.5752     2.0532 </r>
       <r>   -12.2313     1.6507     2.1664 </r>
       <r>   -12.1627     3.7616     2.4242 </r>
       <r>   -12.0942     6.8074     2.8909 </r>
       <r>   -12.0256     9.7836     3.5616 </r>
       <r>   -11.9571    11.1672     4.3271 </r>
       <r>   -11.8885    10.1234     5.0211 </r>
       <r>   -11.8200     7.2885     5.5208 </r>
       <r>   -11.7514     4.1674     5.8064 </r>
       <r>   -11.6829     1.8923     5.9362 </r>
       <r>   -11.6143     0.6823     5.9829 </r>
       <r>   -11.5458     0.1953     5.9963 </r>
       <r>   -11.4772     0.0444     5.9994 </r>
       <r>   -11.4086     0.0080     5.9999 </r>
       <r>   -11.3401     0.0011     6.0000 </r>
       <r>   -11.2715     0.0001     6.0000 </r>
       <r>   -11.2030     0.0000     6.0000 </r>
       <r>   -11.1344     0.0000     6.0000 </r>
       <r>   -11.0659     0.0000     6.0000 </r>
       <r>   -10.9973     0.0000     6.0000 </r>
       <r>   -10.9288     0.0000     6.0000 </r>
       <r>   -10.8602     0.0000     6.0000 </r>
       <r>   -10.7917     0.0000     6.0000 </r>
       <r>   -10.7231     0.0000     6.0000 </r>
       <r>   -10.6546     0.0000     6.0000 </r>
       <r>   -10.5860     0.0000     6.0000 </r>
       <r>   -10.5175     0.0000     6.0000 </r>
       <r>   -10.4489     0.0000     6.0000 </r>
       <r>   -10.3804     0.0000     6.0000 </r>
       <r>   -10.3118     0.0000     6.0000 </r>
       <r>   -10.2433     0.0000     6.0000 </r>
       <r>   -10.1747     0.0000     6.0000 </r>
       <r>   -10.1062     0.0000     6.0000 </r>
       <r>   -10.0376     0.0000     6.0000 </r>
       <r>    -9.9690     0.0000     6.0000 </r>
       <r>    -9.9005     0.0000     6.0000 </r>
       <r>    -9.8319     0.0000     6.0000 </r>
       <r>    -9.7634     0.0000     6.0000 </r>
       <r>    -9.6948     0.0000     6.0000 </r>
       <r>    -9.6263     0.0000     6.0000 </r>
       <r>    -9.5577     0.0000     6.0000 </r>
       <r>    -9.4892     0.0000     6.0000 </r>
       <r>    -9.4206     0.0000     6.0000 </r>
       <r>    -9.3521     0.0000     6.0000 </r>
       <r>    -9.2835     0.0000     6.0000 </r>
       <r>    -9.2150     0.0000     6.0000 </r>
       <r>    -9.1464     0.0000     6.0000 </r>
       <r>    -9.0779     0.0000     6.0000 </r>
       <r>    -9.0093     0.0000     6.0000 </r>
       <r>    -8.9408     0.0000     6.0000 </r>
       <r>    -8.8722     0.0000     6.0000 </r>
       <r>    -8.8037     0.0000     6.0000 </r>
       <r>    -8.7351     0.0000     6.0000 </r>
       <r>    -8.6666     0.0000     6.0000 </r>
       <r>    -8.5980     0.0000     6.0000 </r>
       <r>    -8.5295     0.0000     6.0000 </r>
       <r>    -8.4609     0.0000     6.0000 </r>
       <r>    -8.3923     0.0000     6.0000 </r>
       <r>    -8.3238     0.0000     6.0000 </r>
       <r>    -8.2552     0.0000     6.0000 </r>
       <r>    -8.1867     0.0000     6.0000 </r>
       <r>    -8.1181     0.0000     6.0000 </r>
       <r>    -8.0496     0.0000     6.0000 </r>
       <r>    -7.9810     0.0000     6.0000 </r>
       <r>    -7.9125     0.0000     6.0000 </r>
       <r>    -7.8439     0.0000     6.0000 </r>
       <r>    -7.7754     0.0000     6.0000 </r>
       <r>    -7.7068     0.0000     6.0000 </r>
       <r>    -7.6383     0.0000     6.0000 </r>
       <r>    -7.5697     0.0000     6.0000 </r>
       <r>    -7.5012     0.0000     6.0000 </r>
       <r>    -7.4326     0.0000     6.0000 </r>
       <r>    -7.3641     0.0000     6.0000 </r>
       <r>    -7.2955     0.0000     6.0000 </r>
       <r>    -7.2270     0.0000     6.0000 </r>
       <r>    -7.1584     0.0000     6.0000 </r>
       <r>    -7.0899     0.0000     6.0000 </r>
       <r>    -7.0213     0.0000     6.0000 </r>
       <r>    -6.9527     0.0000     6.0000 </r>
       <r>    -6.8842     0.0000     6.0000 </r>
       <r>    -6.8156     0.0000     6.0000 </r>
       <r>    -6.7471     0.0000     6.0000 </r>
       <r>    -6.6785     0.0000     6.0000 </r>
       <r>    -6.6100     0.0000     6.0000 </r>
       <r>    -6.5414     0.0000     6.0000 </r>
       <r>    -6.4729     0.0000     6.0000 </r>
       <r>    -6.4043     0.0000     6.0000 </r>
       <r>    -6.3358     0.0000     6.0000 </r>
       <r>    -6.2672     0.0000     6.0000 </r>
       <r>    -6.1987     0.0000     6.0000 </r>
       <r>    -6.1301     0.0000     6.0000 </r>
       <r>    -6.0616     0.0000     6.0000 </r>
       <r>    -5.9930     0.0000     6.0000 </r>
       <r>    -5.9245     0.0000     6.0000 </r>
       <r>    -5.8559     0.0000     6.0000 </r>
       <r>    -5.7874     0.0000     6.0000 </r>
       <r>    -5.7188     0.0000     6.0000 </r>
       <r>    -5.6503     0.0000     6.0000 </r>
       <r>    -5.5817     0.0000     6.0000 </r>
       <r>    -5.5131     0.0000     6.0000 </r>
       <r>    -5.4446     0.0000     6.0000 </r>
       <r>    -5.3760     0.0000     6.0000 </r>
       <r>    -5.3075     0.0000     6.0000 </r>
       <r>    -5.2389     0.0000     6.0000 </r>
       <r>    -5.1704     0.0000     6.0000 </r>
       <r>    -5.1018     0.0000     6.0000 </r>
       <r>    -5.0333     0.0000     6.0000 </r>
       <r>    -4.9647     0.0000     6.0000 </r>
       <r>    -4.8962     0.0000     6.0000 </r>
       <r>    -4.8276     0.0000     6.0000 </r>
       <r>    -4.7591     0.0000     6.0000 </r>
       <r>    -4.6905     0.0000     6.0000 </r>
       <r>    -4.6220     0.0000     6.0000 </r>
       <r>    -4.5534     0.0000     6.0000 </r>
       <r>    -4.4849     0.0000     6.0000 </r>
       <r>    -4.4163     0.0000     6.0000 </r>
       <r>    -4.3478     0.0000     6.0000 </r>
       <r>    -4.2792     0.0000     6.0000 </r>
       <r>    -4.2107     0.0000     6.0000 </r>
       <r>    -4.1421     0.0000     6.0000 </r>
       <r>    -4.0735     0.0000     6.0000 </r>
       <r>    -4.0050     0.0000     6.0000 </r>
       <r>    -3.9364     0.0000     6.0000 </r>
       <r>    -3.8679     0.0000     6.0000 </r>
       <r>    -3.7993     0.0000     6.0000 </r>
       <r>    -3.7308     0.0000     6.0000 </r>
       <r>    -3.6622     0.0000     6.0000 </r>
       <r>    -3.5937     0.0000     6.0000 </r>
       <r>    -3.5251     0.0000     6.0000 </r>
       <r>    -3.4566     0.0000     6.0000 </r>
       <r>    -3.3880     0.0000     6.0000 </r>
       <r>    -3.3195     0.0000     6.0000 </r>
       <r>    -3.2509     0.0000     6.0000 </r>
       <r>    -3.1824     0.0000     6.0000 </r>
       <r>    -3.1138     0.0000     6.0000 </r>
       <r>    -3.0453     0.0000     6.0000 </r>
       <r>    -2.9767     0.0000     6.0000 </r>
       <r>    -2.9082     0.0000     6.0000 </r>
       <r>    -2.8396     0.0000     6.0000 </r>
       <r>    -2.7711     0.0000     6.0000 </r>
       <r>    -2.7025     0.0000     6.0000 </r>
       <r>    -2.6339     0.0000     6.0000 </r>
       <r>    -2.5654     0.0000     6.0000 </r>
       <r>    -2.4968     0.0000     6.0000 </r>
       <r>    -2.4283     0.0000     6.0000 </r>
       <r>    -2.3597     0.0000     6.0000 </r>
       <r>    -2.2912     0.0000     6.0000 </r>
       <r>    -2.2226     0.0000     6.0000 </r>
       <r>    -2.1541     0.0000     6.0000 </r>
       <r>    -2.0855     0.0000     6.0000 </r>
       <r>    -2.0170     0.0000     6.0000 </r>
       <r>    -1.9484     0.0000     6.0000 </r>
       <r>    -1.8799     0.0000     6.0000 </r>
       <r>    -1.8113     0.0000     6.0000 </r>
       <r>    -1.7428     0.0000     6.0000 </r>
       <r>    -1.6742     0.0003     6.0000 </r>
       <r>    -1.6057     0.0027     6.0002 </r>
       <r>    -1.5371     0.0171     6.0014 </r>
       <r>    -1.4686     0.0858     6.0073 </r>
       <r>    -1.4000     0.3421     6.0307 </r>
       <r>    -1.3315     1.0833     6.1050 </r>
       <r>    -1.2629     2.7236     6.2917 </r>
       <r>    -1.1943     5.4377     6.6644 </r>
       <r>    -1.1258     8.6217     7.2555 </r>
       <r>    -1.0572    10.8566     7.9997 </r>
       <r>    -0.9887    10.8575     8.7440 </r>
       <r>    -0.9201     8.6238     9.3352 </r>
       <r>    -0.8516     5.4399     9.7081 </r>
       <r>    -0.7830     2.7252     9.8950 </r>
       <r>    -0.7145     1.0848     9.9693 </r>
       <r>    -0.6459     0.3481     9.9932 </r>
       <r>    -0.5774     0.1195    10.0014 </r>
       <r>    -0.5088     0.1765    10.0135 </r>
       <r>    -0.4403     0.6066    10.0550 </r>
       <r>    -0.3717     1.8279    10.1804 </r>
       <r>    -0.3032     4.4186    10.4833 </r>
       <r>    -0.2346     8.5343    11.0683 </r>
       <r>    -0.1661    13.1679    11.9710 </r>
       <r>    -0.0975    16.2281    13.0835 </r>
       <r>    -0.0290    15.9712    14.1783 </r>
       <r>     0.0396    12.5529    15.0389 </r>
       <r>     0.1081     7.8995    15.5804 </r>
       <r>     0.1767     4.0840    15.8604 </r>
       <r>     0.2453     2.1139    16.0053 </r>
       <r>     0.3138     2.0788    16.1478 </r>
       <r>     0.3824     3.7686    16.4061 </r>
       <r>     0.4509     6.7056    16.8658 </r>
       <r>     0.5195     9.7928    17.5371 </r>
       <r>     0.5880    11.6121    18.3332 </r>
       <r>     0.6566    11.5927    19.1279 </r>
       <r>     0.7251    10.7055    19.8618 </r>
       <r>     0.7937    10.4799    20.5802 </r>
       <r>     0.8622    11.2601    21.3521 </r>
       <r>     0.9308    11.8021    22.1611 </r>
       <r>     0.9993    10.7129    22.8955 </r>
       <r>     1.0679     7.9557    23.4409 </r>
       <r>     1.1364     4.7364    23.7656 </r>
       <r>     1.2050     2.2459    23.9196 </r>
       <r>     1.2735     0.8464    23.9776 </r>
       <r>     1.3421     0.2533    23.9950 </r>
       <r>     1.4106     0.0602    23.9991 </r>
       <r>     1.4792     0.0114    23.9999 </r>
       <r>     1.5477     0.0017    24.0000 </r>
       <r>     1.6163     0.0002    24.0000 </r>
       <r>     1.6849     0.0000    24.0000 </r>
       <r>     1.7534     0.0000    24.0000 </r>
       <r>     1.8220     0.0000    24.0000 </r>
       <r>     1.8905     0.0000    24.0000 </r>
       <r>     1.9591     0.0000    24.0000 </r>
       <r>     2.0276     0.0000    24.0000 </r>
       <r>     2.0962     0.0000    24.0000 </r>
       <r>     2.1647     0.0000    24.0000 </r>
       <r>     2.2333     0.0000    24.0000 </r>
       <r>     2.3018     0.0000    24.0000 </r>
       <r>     2.3704     0.0000    24.0000 </r>
       <r>     2.4389     0.0000    24.0000 </r>
       <r>     2.5075     0.0000    24.0000 </r>
       <r>     2.5760     0.0000    24.0000 </r>
       <r>     2.6446     0.0000    24.0000 </r>
       <r>     2.7131     0.0000    24.0000 </r>
       <r>     2.7817     0.0000    24.0000 </r>
       <r>     2.8502     0.0000    24.0000 </r>
       <r>     2.9188     0.0000    24.0000 </r>
      </set>
     </set>
    </array>
   </total>
  </dos>
 </calculation>
 <structure name="finalpos" >
  <crystal>
   <varray name="basis" >
    <v>      15.00000000       0.00000000       0.00000000 </v>
    <v>       0.00000000      15.00000000       0.00000000 </v>
    <v>       0.00000000       0.00000000       6.40000000 </v>
   </varray>
   <i name="volume">   1440.00000000 </i>
   <varray name="rec_basis" >
    <v>       0.06666667      -0.00000000       0.00000000 </v>
    <v>       0.00000000       0.06666667       0.00000000 </v>
    <v>      -0.00000000      -0.00000000       0.15625000 </v>
   </varray>
  </crystal>
  <varray name="positions" >
   <v>       0.00000000       0.00000000       0.00000000 </v>
   <v>       0.00000000       0.00000000       0.12500000 </v>
   <v>       0.00000000       0.00000000       0.25000000 </v>
   <v>       0.00000000       0.00000000       0.37500000 </v>
   <v>       0.00000000       0.00000000       0.50000000 </v>
   <v>       0.00000000       0.00000000       0.62500000 </v>
   <v>       0.00000000       0.00000000       0.75000000 </v>
   <v>       0.00000000       0.00000000       0.87500000 </v>
  </varray>
 </structure>
</modeling>
