   8   8   0   0
  0.2925000E+03  0.1500000E-08  0.1500000E-08  0.1040000E-08  0.5000000E-15
  1.000000000000000E-004
  CAR 
 unknown system                          
      2.66121378    -13.20165487  301     -5.82572488      1.00000000
    -13.202  0.0000E+00  0.0000E+00  0.0000E+00  0.0000E+00
    -13.149  0.0000E+00  0.0000E+00  0.0000E+00  0.0000E+00
    -13.096  0.0000E+00  0.0000E+00  0.0000E+00  0.0000E+00
    -13.043  0.0000E+00  0.0000E+00  0.0000E+00  0.0000E+00
    -12.990  0.0000E+00  0.0000E+00  0.0000E+00  0.0000E+00
    -12.937  0.0000E+00  0.0000E+00  0.0000E+00  0.0000E+00
    -12.884  0.0000E+00  0.0000E+00  0.0000E+00  0.0000E+00
    -12.832  0.0000E+00  0.0000E+00  0.0000E+00  0.0000E+00
    -12.779  0.0000E+00  0.0000E+00  0.0000E+00  0.0000E+00
    -12.726  0.0000E+00  0.0000E+00  0.0000E+00  0.0000E+00
    -12.673  0.0000E+00  0.0000E+00  0.0000E+00  0.0000E+00
    -12.620  0.0000E+00  0.0000E+00  0.0000E+00  0.0000E+00
    -12.567  0.0000E+00  0.0000E+00  0.0000E+00  0.0000E+00
    -12.514  0.0000E+00  0.0000E+00  0.0000E+00  0.0000E+00
    -12.461  0.0000E+00  0.0000E+00  0.0000E+00  0.0000E+00
    -12.409  0.0000E+00  0.0000E+00  0.0000E+00  0.0000E+00
    -12.356  0.6299E-14  0.6299E-14  0.3331E-15  0.3331E-15
    -12.303  0.1239E-12  0.1239E-12  0.6883E-14  0.6883E-14
    -12.250  0.2221E-11  0.2221E-11  0.1243E-12  0.1243E-12
    -12.197  0.3448E-10  0.3448E-10  0.1947E-11  0.1947E-11
    -12.144  0.4661E-09  0.4661E-09  0.2659E-10  0.2659E-10
    -12.091  0.5485E-08  0.5485E-08  0.3166E-09  0.3166E-09
    -12.038  0.5620E-07  0.5620E-07  0.3288E-08  0.3288E-08
    -11.986  0.5013E-06  0.5013E-06  0.2980E-07  0.2980E-07
    -11.933  0.3894E-05  0.3894E-05  0.2357E-06  0.2357E-06
    -11.880  0.2633E-04  0.2633E-04  0.1628E-05  0.1628E-05
    -11.827  0.1550E-03  0.1550E-03  0.9826E-05  0.9826E-05
    -11.774  0.7950E-03  0.7950E-03  0.5186E-04  0.5186E-04
    -11.721  0.3550E-02  0.3550E-02  0.2396E-03  0.2396E-03
    -11.668  0.1380E-01  0.1380E-01  0.9693E-03  0.9693E-03
    -11.615  0.4673E-01  0.4673E-01  0.3440E-02  0.3440E-02
    -11.562  0.1378E+00  0.1378E+00  0.1073E-01  0.1073E-01
    -11.510  0.3538E+00  0.3538E+00  0.2944E-01  0.2943E-01
    -11.457  0.7913E+00  0.7913E+00  0.7128E-01  0.7127E-01
    -11.404  0.1541E+01  0.1541E+01  0.1528E+00  0.1528E+00
    -11.351  0.2614E+01  0.2614E+01  0.2910E+00  0.2910E+00
    -11.298  0.3862E+01  0.3862E+01  0.4952E+00  0.4952E+00
    -11.245  0.4969E+01  0.4969E+01  0.7580E+00  0.7580E+00
    -11.192  0.5569E+01  0.5569E+01  0.1052E+01  0.1052E+01
    -11.139  0.5435E+01  0.5435E+01  0.1340E+01  0.1340E+01
    -11.087  0.4620E+01  0.4620E+01  0.1584E+01  0.1584E+01
    -11.034  0.3420E+01  0.3420E+01  0.1765E+01  0.1765E+01
    -10.981  0.2205E+01  0.2205E+01  0.1882E+01  0.1882E+01
    -10.928  0.1238E+01  0.1238E+01  0.1947E+01  0.1947E+01
    -10.875  0.6057E+00  0.6057E+00  0.1979E+01  0.1979E+01
    -10.822  0.2580E+00  0.2580E+00  0.1993E+01  0.1993E+01
    -10.769  0.9570E-01  0.9570E-01  0.1998E+01  0.1998E+01
    -10.716  0.3092E-01  0.3092E-01  0.1999E+01  0.1999E+01
    -10.664  0.8698E-02  0.8698E-02  0.2000E+01  0.2000E+01
    -10.611  0.2133E-02  0.2133E-02  0.2000E+01  0.2000E+01
    -10.558  0.4725E-03  0.4725E-03  0.2000E+01  0.2000E+01
    -10.505  0.1987E-03  0.1987E-03  0.2000E+01  0.2000E+01
    -10.452  0.6477E-03  0.6477E-03  0.2000E+01  0.2000E+01
    -10.399  0.3066E-02  0.3066E-02  0.2000E+01  0.2000E+01
    -10.346  0.1290E-01  0.1290E-01  0.2001E+01  0.2001E+01
    -10.293  0.4727E-01  0.4727E-01  0.2003E+01  0.2003E+01
    -10.241  0.1509E+00  0.1509E+00  0.2011E+01  0.2011E+01
    -10.188  0.4193E+00  0.4193E+00  0.2034E+01  0.2034E+01
    -10.135  0.1015E+01  0.1015E+01  0.2087E+01  0.2087E+01
    -10.082  0.2140E+01  0.2140E+01  0.2200E+01  0.2200E+01
    -10.029  0.3929E+01  0.3929E+01  0.2408E+01  0.2408E+01
     -9.976  0.6282E+01  0.6282E+01  0.2740E+01  0.2740E+01
     -9.923  0.8749E+01  0.8749E+01  0.3203E+01  0.3203E+01
     -9.870  0.1061E+02  0.1061E+02  0.3764E+01  0.3764E+01
     -9.818  0.1121E+02  0.1121E+02  0.4357E+01  0.4357E+01
     -9.765  0.1031E+02  0.1031E+02  0.4902E+01  0.4902E+01
     -9.712  0.8265E+01  0.8265E+01  0.5339E+01  0.5339E+01
     -9.659  0.5768E+01  0.5768E+01  0.5644E+01  0.5644E+01
     -9.606  0.3506E+01  0.3506E+01  0.5830E+01  0.5830E+01
     -9.553  0.1856E+01  0.1856E+01  0.5928E+01  0.5928E+01
     -9.500  0.8556E+00  0.8556E+00  0.5973E+01  0.5973E+01
     -9.447  0.3436E+00  0.3436E+00  0.5991E+01  0.5991E+01
     -9.395  0.1201E+00  0.1201E+00  0.5997E+01  0.5997E+01
     -9.342  0.3658E-01  0.3658E-01  0.5999E+01  0.5999E+01
     -9.289  0.9701E-02  0.9701E-02  0.6000E+01  0.6000E+01
     -9.236  0.2240E-02  0.2240E-02  0.6000E+01  0.6000E+01
     -9.183  0.4505E-03  0.4505E-03  0.6000E+01  0.6000E+01
     -9.130  0.7888E-04  0.7888E-04  0.6000E+01  0.6000E+01
     -9.077  0.1203E-04  0.1203E-04  0.6000E+01  0.6000E+01
     -9.024  0.1597E-05  0.1597E-05  0.6000E+01  0.6000E+01
     -8.972  0.1845E-06  0.1846E-06  0.6000E+01  0.6000E+01
     -8.919  0.1857E-07  0.1857E-07  0.6000E+01  0.6000E+01
     -8.866  0.1627E-08  0.1627E-08  0.6000E+01  0.6000E+01
     -8.813  0.1241E-09  0.1241E-09  0.6000E+01  0.6000E+01
     -8.760  0.8239E-11  0.8239E-11  0.6000E+01  0.6000E+01
     -8.707  0.4787E-12  0.4787E-12  0.6000E+01  0.6000E+01
     -8.654  0.2520E-13  0.2520E-13  0.6000E+01  0.6000E+01
     -8.601  0.0000E+00  0.0000E+00  0.6000E+01  0.6000E+01
     -8.549  0.0000E+00  0.0000E+00  0.6000E+01  0.6000E+01
     -8.496  0.0000E+00  0.0000E+00  0.6000E+01  0.6000E+01
     -8.443  0.0000E+00  0.0000E+00  0.6000E+01  0.6000E+01
     -8.390  0.0000E+00  0.0000E+00  0.6000E+01  0.6000E+01
     -8.337  0.0000E+00  0.0000E+00  0.6000E+01  0.6000E+01
     -8.284  0.0000E+00  0.0000E+00  0.6000E+01  0.6000E+01
     -8.231  0.0000E+00  0.0000E+00  0.6000E+01  0.6000E+01
     -8.178  0.0000E+00  0.0000E+00  0.6000E+01  0.6000E+01
     -8.126  0.0000E+00  0.0000E+00  0.6000E+01  0.6000E+01
     -8.073  0.0000E+00  0.0000E+00  0.6000E+01  0.6000E+01
     -8.020  0.0000E+00  0.0000E+00  0.6000E+01  0.6000E+01
     -7.967  0.0000E+00  0.0000E+00  0.6000E+01  0.6000E+01
     -7.914  0.0000E+00  0.0000E+00  0.6000E+01  0.6000E+01
     -7.861  0.0000E+00  0.0000E+00  0.6000E+01  0.6000E+01
     -7.808  0.0000E+00  0.0000E+00  0.6000E+01  0.6000E+01
     -7.755  0.0000E+00  0.0000E+00  0.6000E+01  0.6000E+01
     -7.703  0.0000E+00  0.0000E+00  0.6000E+01  0.6000E+01
     -7.650  0.0000E+00  0.0000E+00  0.6000E+01  0.6000E+01
     -7.597  0.0000E+00  0.0000E+00  0.6000E+01  0.6000E+01
     -7.544  0.0000E+00  0.0000E+00  0.6000E+01  0.6000E+01
     -7.491  0.0000E+00  0.0000E+00  0.6000E+01  0.6000E+01
     -7.438  0.0000E+00  0.0000E+00  0.6000E+01  0.6000E+01
     -7.385  0.0000E+00  0.0000E+00  0.6000E+01  0.6000E+01
     -7.332  0.0000E+00  0.0000E+00  0.6000E+01  0.6000E+01
     -7.280  0.0000E+00  0.0000E+00  0.6000E+01  0.6000E+01
     -7.227  0.0000E+00  0.0000E+00  0.6000E+01  0.6000E+01
     -7.174  0.0000E+00  0.0000E+00  0.6000E+01  0.6000E+01
     -7.121  0.0000E+00  0.0000E+00  0.6000E+01  0.6000E+01
     -7.068  0.0000E+00  0.0000E+00  0.6000E+01  0.6000E+01
     -7.015  0.0000E+00  0.0000E+00  0.6000E+01  0.6000E+01
     -6.962  0.3359E-13  0.3359E-13  0.6000E+01  0.6000E+01
     -6.909  0.6551E-12  0.6551E-12  0.6000E+01  0.6000E+01
     -6.857  0.1115E-10  0.1115E-10  0.6000E+01  0.6000E+01
     -6.804  0.1653E-09  0.1653E-09  0.6000E+01  0.6000E+01
     -6.751  0.2135E-08  0.2135E-08  0.6000E+01  0.6000E+01
     -6.698  0.2400E-07  0.2400E-07  0.6000E+01  0.6000E+01
     -6.645  0.2349E-06  0.2349E-06  0.6000E+01  0.6000E+01
     -6.592  0.2002E-05  0.2002E-05  0.6000E+01  0.6000E+01
     -6.539  0.1486E-04  0.1486E-04  0.6000E+01  0.6000E+01
     -6.486  0.9598E-04  0.9598E-04  0.6000E+01  0.6000E+01
     -6.433  0.5400E-03  0.5400E-03  0.6000E+01  0.6000E+01
     -6.381  0.2645E-02  0.2645E-02  0.6000E+01  0.6000E+01
     -6.328  0.1128E-01  0.1128E-01  0.6001E+01  0.6001E+01
     -6.275  0.4191E-01  0.4191E-01  0.6003E+01  0.6003E+01
     -6.222  0.1356E+00  0.1356E+00  0.6010E+01  0.6010E+01
     -6.169  0.3820E+00  0.3820E+00  0.6030E+01  0.6030E+01
     -6.116  0.9371E+00  0.9371E+00  0.6080E+01  0.6080E+01
     -6.063  0.2002E+01  0.2002E+01  0.6186E+01  0.6186E+01
     -6.010  0.3726E+01  0.3726E+01  0.6383E+01  0.6383E+01
     -5.958  0.6038E+01  0.6038E+01  0.6702E+01  0.6702E+01
     -5.905  0.8523E+01  0.8523E+01  0.7153E+01  0.7153E+01
     -5.852  0.1048E+02  0.1048E+02  0.7707E+01  0.7707E+01
     -5.799  0.1122E+02  0.1122E+02  0.8300E+01  0.8300E+01
     -5.746  0.1046E+02  0.1046E+02  0.8853E+01  0.8853E+01
     -5.693  0.8496E+01  0.8496E+01  0.9302E+01  0.9302E+01
     -5.640  0.6010E+01  0.6010E+01  0.9620E+01  0.9620E+01
     -5.587  0.3702E+01  0.3702E+01  0.9816E+01  0.9816E+01
     -5.535  0.1986E+01  0.1986E+01  0.9921E+01  0.9921E+01
     -5.482  0.9282E+00  0.9282E+00  0.9970E+01  0.9970E+01
     -5.429  0.3777E+00  0.3777E+00  0.9990E+01  0.9990E+01
     -5.376  0.1339E+00  0.1339E+00  0.9997E+01  0.9997E+01
     -5.323  0.4132E-01  0.4132E-01  0.9999E+01  0.9999E+01
     -5.270  0.1110E-01  0.1111E-01  0.1000E+02  0.1000E+02
     -5.217  0.2599E-02  0.2599E-02  0.1000E+02  0.1000E+02
     -5.164  0.5297E-03  0.5298E-03  0.1000E+02  0.1000E+02
     -5.112  0.9402E-04  0.9402E-04  0.1000E+02  0.1000E+02
     -5.059  0.1453E-04  0.1453E-04  0.1000E+02  0.1000E+02
     -5.006  0.1955E-05  0.1955E-05  0.1000E+02  0.1000E+02
     -4.953  0.2290E-06  0.2290E-06  0.1000E+02  0.1000E+02
     -4.900  0.2336E-07  0.2336E-07  0.1000E+02  0.1000E+02
     -4.847  0.2075E-08  0.2075E-08  0.1000E+02  0.1000E+02
     -4.794  0.1604E-09  0.1604E-09  0.1000E+02  0.1000E+02
     -4.741  0.1079E-10  0.1079E-10  0.1000E+02  0.1000E+02
     -4.689  0.6383E-12  0.6383E-12  0.1000E+02  0.1000E+02
     -4.636  0.3359E-13  0.3359E-13  0.1000E+02  0.1000E+02
     -4.583  0.0000E+00  0.0000E+00  0.1000E+02  0.1000E+02
     -4.530  0.0000E+00  0.0000E+00  0.1000E+02  0.1000E+02
     -4.477  0.0000E+00  0.0000E+00  0.1000E+02  0.1000E+02
     -4.424  0.0000E+00  0.0000E+00  0.1000E+02  0.1000E+02
     -4.371  0.0000E+00  0.0000E+00  0.1000E+02  0.1000E+02
     -4.318  0.0000E+00  0.0000E+00  0.1000E+02  0.1000E+02
     -4.266  0.0000E+00  0.0000E+00  0.1000E+02  0.1000E+02
     -4.213  0.0000E+00  0.0000E+00  0.1000E+02  0.1000E+02
     -4.160  0.0000E+00  0.0000E+00  0.1000E+02  0.1000E+02
     -4.107  0.0000E+00  0.0000E+00  0.1000E+02  0.1000E+02
     -4.054  0.0000E+00  0.0000E+00  0.1000E+02  0.1000E+02
     -4.001  0.0000E+00  0.0000E+00  0.1000E+02  0.1000E+02
     -3.948  0.0000E+00  0.0000E+00  0.1000E+02  0.1000E+02
     -3.895  0.0000E+00  0.0000E+00  0.1000E+02  0.1000E+02
     -3.843  0.0000E+00  0.0000E+00  0.1000E+02  0.1000E+02
     -3.790  0.0000E+00  0.0000E+00  0.1000E+02  0.1000E+02
     -3.737  0.0000E+00  0.0000E+00  0.1000E+02  0.1000E+02
     -3.684  0.0000E+00  0.0000E+00  0.1000E+02  0.1000E+02
     -3.631  0.0000E+00  0.0000E+00  0.1000E+02  0.1000E+02
     -3.578  0.0000E+00  0.0000E+00  0.1000E+02  0.1000E+02
     -3.525  0.0000E+00  0.0000E+00  0.1000E+02  0.1000E+02
     -3.472  0.0000E+00  0.0000E+00  0.1000E+02  0.1000E+02
     -3.420  0.0000E+00  0.0000E+00  0.1000E+02  0.1000E+02
     -3.367  0.0000E+00  0.0000E+00  0.1000E+02  0.1000E+02
     -3.314  0.0000E+00  0.0000E+00  0.1000E+02  0.1000E+02
     -3.261  0.0000E+00  0.0000E+00  0.1000E+02  0.1000E+02
     -3.208  0.0000E+00  0.0000E+00  0.1000E+02  0.1000E+02
     -3.155  0.0000E+00  0.0000E+00  0.1000E+02  0.1000E+02
     -3.102  0.0000E+00  0.0000E+00  0.1000E+02  0.1000E+02
     -3.049  0.0000E+00  0.0000E+00  0.1000E+02  0.1000E+02
     -2.997  0.0000E+00  0.0000E+00  0.1000E+02  0.1000E+02
     -2.944  0.0000E+00  0.0000E+00  0.1000E+02  0.1000E+02
     -2.891  0.0000E+00  0.0000E+00  0.1000E+02  0.1000E+02
     -2.838  0.0000E+00  0.0000E+00  0.1000E+02  0.1000E+02
     -2.785  0.0000E+00  0.0000E+00  0.1000E+02  0.1000E+02
     -2.732  0.0000E+00  0.0000E+00  0.1000E+02  0.1000E+02
     -2.679  0.0000E+00  0.0000E+00  0.1000E+02  0.1000E+02
     -2.626  0.0000E+00  0.0000E+00  0.1000E+02  0.1000E+02
     -2.574  0.0000E+00  0.0000E+00  0.1000E+02  0.1000E+02
     -2.521  0.0000E+00  0.0000E+00  0.1000E+02  0.1000E+02
     -2.468  0.0000E+00  0.0000E+00  0.1000E+02  0.1000E+02
     -2.415  0.0000E+00  0.0000E+00  0.1000E+02  0.1000E+02
     -2.362  0.0000E+00  0.0000E+00  0.1000E+02  0.1000E+02
     -2.309  0.0000E+00  0.0000E+00  0.1000E+02  0.1000E+02
     -2.256  0.0000E+00  0.0000E+00  0.1000E+02  0.1000E+02
     -2.203  0.0000E+00  0.0000E+00  0.1000E+02  0.1000E+02
     -2.151  0.0000E+00  0.0000E+00  0.1000E+02  0.1000E+02
     -2.098  0.0000E+00  0.0000E+00  0.1000E+02  0.1000E+02
     -2.045  0.0000E+00  0.0000E+00  0.1000E+02  0.1000E+02
     -1.992  0.0000E+00  0.0000E+00  0.1000E+02  0.1000E+02
     -1.939  0.0000E+00  0.0000E+00  0.1000E+02  0.1000E+02
     -1.886  0.0000E+00  0.0000E+00  0.1000E+02  0.1000E+02
     -1.833  0.0000E+00  0.0000E+00  0.1000E+02  0.1000E+02
     -1.780  0.0000E+00  0.0000E+00  0.1000E+02  0.1000E+02
     -1.728  0.0000E+00  0.0000E+00  0.1000E+02  0.1000E+02
     -1.675  0.0000E+00  0.0000E+00  0.1000E+02  0.1000E+02
     -1.622  0.0000E+00  0.0000E+00  0.1000E+02  0.1000E+02
     -1.569  0.0000E+00  0.0000E+00  0.1000E+02  0.1000E+02
     -1.516  0.0000E+00  0.0000E+00  0.1000E+02  0.1000E+02
     -1.463  0.0000E+00  0.0000E+00  0.1000E+02  0.1000E+02
     -1.410  0.0000E+00  0.0000E+00  0.1000E+02  0.1000E+02
     -1.357  0.0000E+00  0.0000E+00  0.1000E+02  0.1000E+02
     -1.305  0.2520E-13  0.2940E-13  0.1000E+02  0.1000E+02
     -1.252  0.5375E-12  0.5417E-12  0.1000E+02  0.1000E+02
     -1.199  0.9241E-11  0.9411E-11  0.1000E+02  0.1000E+02
     -1.146  0.1395E-09  0.1419E-09  0.1000E+02  0.1000E+02
     -1.093  0.1833E-08  0.1863E-08  0.1000E+02  0.1000E+02
     -1.040  0.2099E-07  0.2131E-07  0.1000E+02  0.1000E+02
     -0.987  0.2094E-06  0.2124E-06  0.1000E+02  0.1000E+02
     -0.934  0.1821E-05  0.1845E-05  0.1000E+02  0.1000E+02
     -0.881  0.1380E-04  0.1396E-04  0.1000E+02  0.1000E+02
     -0.829  0.9111E-04  0.9213E-04  0.1000E+02  0.1000E+02
     -0.776  0.5245E-03  0.5299E-03  0.1000E+02  0.1000E+02
     -0.723  0.2633E-02  0.2657E-02  0.1000E+02  0.1000E+02
     -0.670  0.1153E-01  0.1162E-01  0.1000E+02  0.1000E+02
     -0.617  0.4400E-01  0.4432E-01  0.1000E+02  0.1000E+02
     -0.564  0.1465E+00  0.1475E+00  0.1001E+02  0.1001E+02
     -0.511  0.4256E+00  0.4280E+00  0.1003E+02  0.1003E+02
     -0.458  0.1079E+01  0.1084E+01  0.1009E+02  0.1009E+02
     -0.406  0.2387E+01  0.2396E+01  0.1022E+02  0.1022E+02
     -0.353  0.4609E+01  0.4623E+01  0.1046E+02  0.1046E+02
     -0.300  0.7770E+01  0.7787E+01  0.1087E+02  0.1087E+02
     -0.247  0.1144E+02  0.1145E+02  0.1148E+02  0.1148E+02
     -0.194  0.1470E+02  0.1471E+02  0.1225E+02  0.1226E+02
     -0.141  0.1650E+02  0.1651E+02  0.1313E+02  0.1313E+02
     -0.088  0.1619E+02  0.1618E+02  0.1398E+02  0.1399E+02
     -0.035  0.1387E+02  0.1385E+02  0.1471E+02  0.1472E+02
      0.017  0.1038E+02  0.1036E+02  0.1526E+02  0.1527E+02
      0.070  0.6796E+01  0.6781E+01  0.1562E+02  0.1562E+02
      0.123  0.3909E+01  0.3898E+01  0.1583E+02  0.1583E+02
      0.176  0.2038E+01  0.2030E+01  0.1594E+02  0.1594E+02
      0.229  0.1154E+01  0.1147E+01  0.1600E+02  0.1600E+02
      0.282  0.1156E+01  0.1145E+01  0.1606E+02  0.1606E+02
      0.335  0.2080E+01  0.2060E+01  0.1617E+02  0.1617E+02
      0.388  0.4122E+01  0.4091E+01  0.1639E+02  0.1638E+02
      0.440  0.7443E+01  0.7402E+01  0.1678E+02  0.1678E+02
      0.493  0.1185E+02  0.1181E+02  0.1741E+02  0.1740E+02
      0.546  0.1656E+02  0.1653E+02  0.1828E+02  0.1827E+02
      0.599  0.2030E+02  0.2029E+02  0.1936E+02  0.1935E+02
      0.652  0.2184E+02  0.2185E+02  0.2051E+02  0.2050E+02
      0.705  0.2061E+02  0.2065E+02  0.2160E+02  0.2159E+02
      0.758  0.1707E+02  0.1711E+02  0.2250E+02  0.2250E+02
      0.811  0.1240E+02  0.1244E+02  0.2316E+02  0.2316E+02
      0.863  0.7896E+01  0.7926E+01  0.2358E+02  0.2358E+02
      0.916  0.4409E+01  0.4427E+01  0.2381E+02  0.2381E+02
      0.969  0.2157E+01  0.2167E+01  0.2392E+02  0.2392E+02
      1.022  0.9244E+00  0.9285E+00  0.2397E+02  0.2397E+02
      1.075  0.3468E+00  0.3483E+00  0.2399E+02  0.2399E+02
      1.128  0.1138E+00  0.1143E+00  0.2400E+02  0.2400E+02
      1.181  0.3268E-01  0.3282E-01  0.2400E+02  0.2400E+02
      1.234  0.8203E-02  0.8235E-02  0.2400E+02  0.2400E+02
      1.286  0.1799E-02  0.1805E-02  0.2400E+02  0.2400E+02
      1.339  0.3444E-03  0.3457E-03  0.2400E+02  0.2400E+02
      1.392  0.5759E-04  0.5777E-04  0.2400E+02  0.2400E+02
      1.445  0.8402E-05  0.8427E-05  0.2400E+02  0.2400E+02
      1.498  0.1069E-05  0.1072E-05  0.2400E+02  0.2400E+02
      1.551  0.1187E-06  0.1190E-06  0.2400E+02  0.2400E+02
      1.604  0.1149E-07  0.1152E-07  0.2400E+02  0.2400E+02
      1.657  0.9695E-09  0.9715E-09  0.2400E+02  0.2400E+02
      1.709  0.7129E-10  0.7142E-10  0.2400E+02  0.2400E+02
      1.762  0.4573E-11  0.4581E-11  0.2400E+02  0.2400E+02
      1.815  0.2478E-12  0.2478E-12  0.2400E+02  0.2400E+02
      1.868  0.1680E-13  0.1680E-13  0.2400E+02  0.2400E+02
      1.921  0.0000E+00  0.0000E+00  0.2400E+02  0.2400E+02
      1.974  0.0000E+00  0.0000E+00  0.2400E+02  0.2400E+02
      2.027  0.0000E+00  0.0000E+00  0.2400E+02  0.2400E+02
      2.080  0.0000E+00  0.0000E+00  0.2400E+02  0.2400E+02
      2.132  0.0000E+00  0.0000E+00  0.2400E+02  0.2400E+02
      2.185  0.0000E+00  0.0000E+00  0.2400E+02  0.2400E+02
      2.238  0.0000E+00  0.0000E+00  0.2400E+02  0.2400E+02
      2.291  0.0000E+00  0.0000E+00  0.2400E+02  0.2400E+02
      2.344  0.0000E+00  0.0000E+00  0.2400E+02  0.2400E+02
      2.397  0.0000E+00  0.0000E+00  0.2400E+02  0.2400E+02
      2.450  0.0000E+00  0.0000E+00  0.2400E+02  0.2400E+02
      2.503  0.0000E+00  0.0000E+00  0.2400E+02  0.2400E+02
      2.555  0.0000E+00  0.0000E+00  0.2400E+02  0.2400E+02
      2.608  0.0000E+00  0.0000E+00  0.2400E+02  0.2400E+02
      2.661  0.0000E+00  0.0000E+00  0.2400E+02  0.2400E+02
