    8    8    1    2
  0.2925000E+03  0.1500000E-08  0.1500000E-08  0.1040000E-08  0.5000000E-15
  1.000000000000000E-004
  CAR 
 unknown system                          
      8      1     12
 
  0.0000000E+00  0.0000000E+00  0.0000000E+00  0.1000000E+01
    1      -11.201655    -11.201655   1.000000   1.000000
    2       -9.849462     -9.849462   1.000000   1.000000
    3       -9.849462     -9.849462   1.000000   1.000000
    4       -5.825725     -5.825725   0.500000   0.500000
    5       -5.825725     -5.825725   0.500000   0.500000
    6       -0.163545     -0.163900   0.000000   0.000000
    7       -0.163545     -0.163900   0.000000   0.000000
    8       -0.118983     -0.119016   0.000000   0.000000
    9        0.590808      0.591612   0.000000   0.000000
   10        0.600778      0.601843   0.000000   0.000000
   11        0.661208      0.661209   0.000000   0.000000
   12        0.661209      0.661214   0.000000   0.000000
