       N       E                     dE             d eps       ncg     rms          rms(c)
DAV:   1     0.509957130241E+01    0.50996E+01   -0.10958E+03    56   0.182E+02
DAV:   2    -0.180456904882E+02   -0.23145E+02   -0.22621E+02    80   0.537E+01
DAV:   3    -0.195461440864E+02   -0.15005E+01   -0.12927E+01    60   0.160E+01
DAV:   4    -0.195859990793E+02   -0.39855E-01   -0.39051E-01    64   0.247E+00
DAV:   5    -0.195866469229E+02   -0.64784E-03   -0.64140E-03    64   0.284E-01    0.236E+00
DAV:   6    -0.194972118280E+02    0.89435E-01   -0.29225E-02    64   0.778E-01    0.144E+00
DAV:   7    -0.194102883604E+02    0.86923E-01   -0.11037E-01    56   0.145E+00    0.193E-01
DAV:   8    -0.194108560532E+02   -0.56769E-03   -0.34635E-03    48   0.300E-01    0.596E-02
DAV:   9    -0.194113862110E+02   -0.53016E-03   -0.34728E-04    60   0.837E-02    0.325E-02
DAV:  10    -0.194130678718E+02   -0.16817E-02   -0.28117E-04    48   0.706E-02    0.209E-02
DAV:  11    -0.194131734146E+02   -0.10554E-03   -0.17272E-04    52   0.609E-02    0.110E-02
DAV:  12    -0.194150722435E+02   -0.18988E-02   -0.17597E-04    52   0.528E-02    0.780E-03
DAV:  13    -0.194164457267E+02   -0.13735E-02   -0.21433E-04    48   0.551E-02    0.458E-03
DAV:  14    -0.194167116367E+02   -0.26591E-03   -0.64459E-06    48   0.116E-02    0.296E-03
DAV:  15    -0.194169887523E+02   -0.27712E-03   -0.13438E-05    48   0.149E-02    0.170E-03
DAV:  16    -0.194170099851E+02   -0.21233E-04   -0.25503E-07    48   0.237E-03    0.107E-03
DAV:  17    -0.194170458036E+02   -0.35819E-04   -0.52195E-07    48   0.308E-03    0.289E-04
DAV:  18    -0.194170534484E+02   -0.76448E-05   -0.18201E-07    48   0.198E-03    0.174E-04
DAV:  19    -0.194170554331E+02   -0.19847E-05   -0.18021E-08    48   0.686E-04    0.109E-04
DAV:  20    -0.194170583093E+02   -0.28763E-05   -0.24732E-08    48   0.958E-04    0.400E-05
DAV:  21    -0.194170587811E+02   -0.47181E-06   -0.36530E-09    56   0.377E-04
   1 F= -.19417059E+02 E0= -.19304221E+02  d E =-.225676E+00  mag=     0.0000
