<?xml version="1.0" encoding="ISO-8859-1"?>
<modeling>
 <generator>
  <i name="program" type="string">vasp </i>
  <i name="version" type="string">5.4.4.18Apr17-6-g9f103f2a35  </i>
  <i name="subversion" type="string">(build Aug 24 2024 05:40:03) complex            parallel </i>
  <i name="platform" type="string">IFC22_IMPI </i>
  <i name="date" type="string">2024 11 22 </i>
  <i name="time" type="string">21:40:20 </i>
 </generator>
 <incar>
  <i type="string" name="PREC">normal</i>
  <i type="int" name="ISPIN">     2</i>
  <i type="int" name="ICHARG">     2</i>
  <i type="int" name="NELM">   100</i>
  <i name="EDIFF">      0.00000100</i>
  <i type="int" name="NSW">     0</i>
  <i name="ENCUT">    300.00000000</i>
  <i name="NUPDOWN">      0.00000000</i>
  <i type="int" name="ISMEAR">     0</i>
  <i name="SIGMA">      0.20000000</i>
  <i type="logical" name="LWAVE"> F  </i>
  <i type="logical" name="LCHARG"> F  </i>
  <v type="int" name="KPOINT_BSE">    -1     0     0     0</v>
  <i type="int" name="NELM">   100</i>
 </incar>
 <structure name="primitive_cell" >
  <crystal>
   <varray name="basis" >
    <v>      15.00000000       0.00000000       0.00000000 </v>
    <v>       0.00000000      15.00000000       0.00000000 </v>
    <v>       0.00000000       0.00000000       1.30000000 </v>
   </varray>
   <i name="volume">    292.50000000 </i>
   <varray name="rec_basis" >
    <v>       0.06666667      -0.00000000       0.00000000 </v>
    <v>       0.00000000       0.06666667       0.00000000 </v>
    <v>      -0.00000000      -0.00000000       0.76923077 </v>
   </varray>
  </crystal>
  <varray name="positions" >
   <v>       0.00000000       0.00000000       0.00000000 </v>
  </varray>
 </structure>
 <varray name="primitive_index" >
  <v type="int" >        1 </v>
 </varray>
 <kpoints>
  <generation param="Gamma">
   <v type="int" name="divisions">       1        1        1 </v>
   <v name="usershift">      0.00000000       0.00000000       0.00000000 </v>
   <v name="genvec1">      1.00000000      -0.00000000       0.00000000 </v>
   <v name="genvec2">      0.00000000       1.00000000       0.00000000 </v>
   <v name="genvec3">      0.00000000       0.00000000       1.00000000 </v>
   <v name="shift">      0.00000000       0.00000000       0.00000000 </v>
  </generation>
  <varray name="kpointlist" >
   <v>       0.00000000       0.00000000       0.00000000 </v>
  </varray>
  <varray name="weights" >
   <v>       1.00000000 </v>
  </varray>
 </kpoints>
 <parameters>
  <separator name="general" >
   <i type="string" name="SYSTEM">unknown system</i>
   <i type="logical" name="LCOMPAT"> F  </i>
  </separator>
  <separator name="electronic" >
   <i type="string" name="PREC">normal</i>
   <i name="ENMAX">    300.00000000</i>
   <i name="ENAUG">    400.00000000</i>
   <i name="EDIFF">      0.00000100</i>
   <i type="int" name="IALGO">    38</i>
   <i type="int" name="IWAVPR">    10</i>
   <i type="int" name="NBANDS">    12</i>
   <i name="NELECT">      8.00000000</i>
   <i type="int" name="TURBO">     0</i>
   <i type="int" name="IRESTART">     0</i>
   <i type="int" name="NREBOOT">     0</i>
   <i type="int" name="NMIN">     0</i>
   <i name="EREF">      0.00000000</i>
   <separator name="electronic smearing" >
    <i type="int" name="ISMEAR">     0</i>
    <i name="SIGMA">      0.20000000</i>
    <i name="KSPACING">      0.50000000</i>
    <i type="logical" name="KGAMMA"> T  </i>
   </separator>
   <separator name="electronic projectors" >
    <i type="logical" name="LREAL"> F  </i>
    <v name="ROPT">      0.00000000</v>
    <i type="int" name="LMAXPAW">  -100</i>
    <i type="int" name="LMAXMIX">     2</i>
    <i type="logical" name="NLSPLINE"> F  </i>
   </separator>
   <separator name="electronic startup" >
    <i type="int" name="ISTART">     0</i>
    <i type="int" name="ICHARG">     2</i>
    <i type="int" name="INIWAV">     1</i>
   </separator>
   <separator name="electronic spin" >
    <i type="int" name="ISPIN">     2</i>
    <i type="logical" name="LNONCOLLINEAR"> F  </i>
    <v name="MAGMOM">      0.00000000      0.00000000      0.00000000      0.00000000      0.00000000      0.00000000      0.00000000      0.00000000</v>
    <i name="NUPDOWN">      0.00000000</i>
    <i type="logical" name="LSORBIT"> F  </i>
    <v name="SAXIS">      0.00000000      0.00000000      1.00000000</v>
    <i type="logical" name="LSPIRAL"> F  </i>
    <v name="QSPIRAL">      0.00000000      0.00000000      0.00000000</v>
    <i type="logical" name="LZEROZ"> F  </i>
   </separator>
   <separator name="electronic exchange-correlation" >
    <i type="logical" name="LASPH"> F  </i>
    <i type="logical" name="LMETAGGA"> F  </i>
   </separator>
   <separator name="electronic convergence" >
    <i type="int" name="NELM">   100</i>
    <i type="int" name="NELMDL">    -5</i>
    <i type="int" name="NELMIN">     2</i>
    <i name="ENINI">    300.00000000</i>
    <separator name="electronic convergence detail" >
     <i type="logical" name="LDIAG"> T  </i>
     <i type="logical" name="LSUBROT"> F  </i>
     <i name="WEIMIN">      0.00000000</i>
     <i name="EBREAK">      0.00000002</i>
     <i name="DEPER">      0.30000000</i>
     <i type="int" name="NRMM">     4</i>
     <i name="TIME">      0.40000000</i>
    </separator>
   </separator>
   <separator name="electronic mixer" >
    <i name="AMIX">      0.40000000</i>
    <i name="BMIX">      1.00000000</i>
    <i name="AMIN">      0.10000000</i>
    <i name="AMIX_MAG">      1.60000000</i>
    <i name="BMIX_MAG">      1.00000000</i>
    <separator name="electronic mixer details" >
     <i type="int" name="IMIX">     4</i>
     <i type="logical" name="MIXFIRST"> F  </i>
     <i type="int" name="MAXMIX">   -45</i>
     <i name="WC">    100.00000000</i>
     <i type="int" name="INIMIX">     1</i>
     <i type="int" name="MIXPRE">     1</i>
     <i type="int" name="MREMOVE">     5</i>
    </separator>
   </separator>
   <separator name="electronic dipolcorrection" >
    <i type="logical" name="LDIPOL"> F  </i>
    <i type="logical" name="LMONO"> F  </i>
    <i type="int" name="IDIPOL">     0</i>
    <i name="EPSILON">      1.00000000</i>
    <v name="DIPOL">   -100.00000000   -100.00000000   -100.00000000</v>
    <i name="EFIELD">      0.00000000</i>
   </separator>
  </separator>
  <separator name="grids" >
   <i type="int" name="NGX">    64</i>
   <i type="int" name="NGY">    64</i>
   <i type="int" name="NGZ">    48</i>
   <i type="int" name="NGXF">   128</i>
   <i type="int" name="NGYF">   128</i>
   <i type="int" name="NGZF">    96</i>
   <i type="logical" name="ADDGRID"> F  </i>
  </separator>
  <separator name="ionic" >
   <i type="int" name="NSW">     0</i>
   <i type="int" name="IBRION">    -1</i>
   <i type="int" name="MDALGO">     0</i>
   <i type="int" name="ISIF">     2</i>
   <i name="PSTRESS">      0.00000000</i>
   <i name="EDIFFG">      0.00001000</i>
   <i type="int" name="NFREE">     0</i>
   <i name="POTIM">      0.50000000</i>
   <i name="SMASS">     -3.00000000</i>
   <i name="SCALEE">      1.00000000</i>
  </separator>
  <separator name="ionic md" >
   <i name="TEBEG">      0.00010000</i>
   <i name="TEEND">      0.00010000</i>
   <i type="int" name="NBLOCK">     1</i>
   <i type="int" name="KBLOCK">     1</i>
   <i type="int" name="NPACO">   256</i>
   <i name="APACO">     16.00000000</i>
  </separator>
  <separator name="symmetry" >
   <i type="int" name="ISYM">     2</i>
   <i name="SYMPREC">      0.00001000</i>
  </separator>
  <separator name="dos" >
   <i type="int" name="LORBIT">     0</i>
   <v name="RWIGS">     -1.00000000</v>
   <i type="int" name="NEDOS">   301</i>
   <i name="EMIN">     10.00000000</i>
   <i name="EMAX">    -10.00000000</i>
   <i name="EFERMI">      0.00000000</i>
  </separator>
  <separator name="writing" >
   <i type="int" name="NWRITE">     2</i>
   <i type="logical" name="LWAVE"> F  </i>
   <i type="logical" name="LDOWNSAMPLE"> F  </i>
   <i type="logical" name="LCHARG"> F  </i>
   <i type="logical" name="LPARD"> F  </i>
   <i type="logical" name="LVTOT"> F  </i>
   <i type="logical" name="LVHAR"> F  </i>
   <i type="logical" name="LELF"> F  </i>
   <i type="logical" name="LOPTICS"> F  </i>
   <v name="STM">      0.00000000      0.00000000      0.00000000      0.00000000      0.00000000      0.00000000      0.00000000</v>
  </separator>
  <separator name="performance" >
   <i type="int" name="NPAR">     4</i>
   <i type="int" name="NSIM">     4</i>
   <i type="int" name="NBLK">    -1</i>
   <i type="logical" name="LPLANE"> T  </i>
   <i type="logical" name="LSCALAPACK"> T  </i>
   <i type="logical" name="LSCAAWARE"> F  </i>
   <i type="logical" name="LSCALU"> F  </i>
   <i type="logical" name="LASYNC"> F  </i>
   <i type="logical" name="LORBITALREAL"> F  </i>
  </separator>
  <separator name="miscellaneous" >
   <i type="int" name="IDIOT">     3</i>
   <i type="int" name="ISPECIAL">     0</i>
   <i type="logical" name="LMUSIC"> F  </i>
   <v name="POMASS">      1.00000000</v>
   <v name="DARWINR">      0.00000000</v>
   <v name="DARWINV">      1.00000000</v>
   <i type="logical" name="LCORR"> T  </i>
  </separator>
  <i type="logical" name="GGA_COMPAT"> T  </i>
  <i type="logical" name="LBERRY"> F  </i>
  <i type="int" name="ICORELEVEL">     0</i>
  <i type="logical" name="LDAU"> F  </i>
  <i type="int" name="I_CONSTRAINED_M">     0</i>
  <separator name="electronic exchange-correlation" >
   <i type="string" name="GGA">--</i>
   <i type="int" name="VOSKOWN">     0</i>
   <i type="logical" name="LHFCALC"> F  </i>
   <i type="string" name="PRECFOCK"></i>
   <i type="logical" name="LSYMGRAD"> F  </i>
   <i type="logical" name="LHFONE"> F  </i>
   <i type="logical" name="LRHFCALC"> F  </i>
   <i type="logical" name="LTHOMAS"> F  </i>
   <i type="logical" name="LMODELHF"> F  </i>
   <i name="ENCUT4O">     -1.00000000</i>
   <i type="int" name="EXXOEP">     0</i>
   <i type="int" name="FOURORBIT">     0</i>
   <i name="AEXX">      0.00000000</i>
   <i name="HFALPHA">      0.00000000</i>
   <i name="MCALPHA">      0.00000000</i>
   <i name="ALDAX">      1.00000000</i>
   <i name="AGGAX">      1.00000000</i>
   <i name="ALDAC">      1.00000000</i>
   <i name="AGGAC">      1.00000000</i>
   <i type="int" name="NKREDX">     1</i>
   <i type="int" name="NKREDY">     1</i>
   <i type="int" name="NKREDZ">     1</i>
   <i type="logical" name="SHIFTRED"> F  </i>
   <i type="logical" name="ODDONLY"> F  </i>
   <i type="logical" name="EVENONLY"> F  </i>
   <i type="int" name="LMAXFOCK">     0</i>
   <i type="int" name="NMAXFOCKAE">     0</i>
   <i type="logical" name="LFOCKAEDFT"> F  </i>
   <i name="HFSCREEN">      0.00000000</i>
   <i name="HFSCREENC">      0.00000000</i>
   <i type="int" name="NBANDSGWLOW">     0</i>
  </separator>
  <separator name="vdW DFT" >
   <i type="logical" name="LUSE_VDW"> F  </i>
   <i name="Zab_VDW">     -0.84910000</i>
   <i name="PARAM1">      0.12340000</i>
   <i name="PARAM2">      1.00000000</i>
   <i name="PARAM3">      0.00000000</i>
  </separator>
  <separator name="model GW" >
   <i type="int" name="MODEL_GW">     0</i>
   <i name="MODEL_EPS0">    175.50000000</i>
   <i name="MODEL_ALPHA">      1.00000000</i>
  </separator>
  <separator name="linear response parameters" >
   <i type="logical" name="LEPSILON"> F  </i>
   <i type="logical" name="LRPA"> F  </i>
   <i type="logical" name="LNABLA"> F  </i>
   <i type="logical" name="LVEL"> F  </i>
   <i type="int" name="KINTER">     0</i>
   <i name="CSHIFT">      0.10000000</i>
   <i name="OMEGAMAX">     -1.00000000</i>
   <i name="DEG_THRESHOLD">      0.00200000</i>
   <i name="RTIME">     -0.10000000</i>
   <i name="WPLASMAI">      0.00000000</i>
   <v name="DFIELD">      0.00000000      0.00000000      0.00000000</v>
   <v name="WPLASMA">      0.00000000      0.00000000      0.00000000      0.00000000      0.00000000      0.00000000      0.00000000      0.00000000      0.00000000</v>
  </separator>
  <separator name="orbital magnetization" >
   <i type="logical" name="NUCIND"> F  </i>
   <v name="MAGPOS">      0.00000000      0.00000000      0.00000000</v>
   <i type="logical" name="LNICSALL"> T  </i>
   <i type="logical" name="ORBITALMAG"> F  </i>
   <i type="logical" name="LMAGBLOCH"> F  </i>
   <i type="logical" name="LCHIMAG"> F  </i>
   <i type="logical" name="LGAUGE"> T  </i>
   <i type="int" name="MAGATOM">     0</i>
   <v name="MAGDIPOL">      0.00000000      0.00000000      0.00000000</v>
   <v name="AVECCONST">      0.00000000      0.00000000      0.00000000</v>
  </separator>
  <separator name="response functions" >
   <i type="logical" name="LADDER"> F  </i>
   <i type="logical" name="LRPAFORCE"> F  </i>
   <i type="logical" name="LFXC"> F  </i>
   <i type="logical" name="LHARTREE"> T  </i>
   <i type="int" name="IBSE">     0</i>
   <v type="int" name="KPOINT">    -1     0     0     0</v>
   <i type="logical" name="LTCTE"> F  </i>
   <i type="logical" name="LTETE"> F  </i>
   <i type="logical" name="LTRIPLET"> F  </i>
   <i type="logical" name="LFXCEPS"> F  </i>
   <i type="logical" name="LFXHEG"> F  </i>
   <i type="int" name="NATURALO">     2</i>
   <i type="logical" name="L2ORDER"> F  </i>
   <i type="logical" name="LMP2LT"> F  </i>
   <i type="logical" name="LUSEW"> F  </i>
   <i name="ENCUTGW">     -2.00000000</i>
   <i name="ENCUTGWSOFT">     -2.00000000</i>
   <i name="ENCUTLF">     -1.00000000</i>
   <i type="int" name="LMAXMP2">    -1</i>
   <i name="SCISSOR">      0.00000000</i>
   <i type="int" name="NOMEGA">     0</i>
   <i type="int" name="NOMEGAR">     0</i>
   <i type="int" name="NBANDSGW">    -1</i>
   <i type="int" name="NBANDSO">    -1</i>
   <i type="int" name="NBANDSV">    -1</i>
   <i type="int" name="NELM">   100</i>
   <i type="int" name="NELMHF">     1</i>
   <i type="int" name="DIM">     3</i>
   <i type="int" name="ANTIRES">     0</i>
   <i name="OMEGAMAX">    -30.00000000</i>
   <i name="OMEGAMIN">    -30.00000000</i>
   <i name="OMEGATL">   -200.00000000</i>
   <i type="int" name="OMEGAGRID">   140</i>
   <i name="CSHIFT">     -0.10000000</i>
   <i type="logical" name="SELFENERGY"> F  </i>
   <i type="logical" name="LSPECTRAL"> F  </i>
   <i type="logical" name="LSPECTRALGW"> F  </i>
   <i type="logical" name="LSINGLES"> F  </i>
   <i type="logical" name="LFERMIGW"> F  </i>
   <i type="logical" name="ODDONLYGW"> F  </i>
   <i type="logical" name="EVENONLYGW"> F  </i>
   <i type="int" name="NKREDLFX">     1</i>
   <i type="int" name="NKREDLFY">     1</i>
   <i type="int" name="NKREDLFZ">     1</i>
   <i type="int" name="MAXMEM">  2800</i>
   <i type="int" name="TELESCOPE">     0</i>
   <i type="int" name="TAUPAR">     1</i>
   <i type="int" name="OMEGAPAR">    -1</i>
   <i name="LAMBDA">      1.00000000</i>
  </separator>
  <separator name="External order field" >
   <i name="OFIELD_KAPPA">      0.00000000</i>
   <v name="OFIELD_K">      0.00000000      0.00000000      0.00000000</v>
   <i name="OFIELD_Q6_NEAR">      0.00000000</i>
   <i name="OFIELD_Q6_FAR">      0.00000000</i>
   <i name="OFIELD_A">      0.00000000</i>
  </separator>
 </parameters>
 <atominfo>
  <atoms>       8 </atoms>
  <types>       1 </types>
  <array name="atoms" >
   <dimension dim="1">ion</dimension>
   <field type="string">element</field>
   <field type="int">atomtype</field>
   <set>
    <rc><c>H </c><c>   1</c></rc>
    <rc><c>H </c><c>   1</c></rc>
    <rc><c>H </c><c>   1</c></rc>
    <rc><c>H </c><c>   1</c></rc>
    <rc><c>H </c><c>   1</c></rc>
    <rc><c>H </c><c>   1</c></rc>
    <rc><c>H </c><c>   1</c></rc>
    <rc><c>H </c><c>   1</c></rc>
   </set>
  </array>
  <array name="atomtypes" >
   <dimension dim="1">type</dimension>
   <field type="int">atomspertype</field>
   <field type="string">element</field>
   <field>mass</field>
   <field>valence</field>
   <field type="string">pseudopotential</field>
   <set>
    <rc><c>   8</c><c>H </c><c>      1.00000000</c><c>      1.00000000</c><c>  PAW_PBE H 15Jun2001                   </c></rc>
   </set>
  </array>
 </atominfo>
 <structure name="initialpos" >
  <crystal>
   <varray name="basis" >
    <v>      15.00000000       0.00000000       0.00000000 </v>
    <v>       0.00000000      15.00000000       0.00000000 </v>
    <v>       0.00000000       0.00000000      10.40000000 </v>
   </varray>
   <i name="volume">   2340.00000000 </i>
   <varray name="rec_basis" >
    <v>       0.06666667      -0.00000000       0.00000000 </v>
    <v>       0.00000000       0.06666667       0.00000000 </v>
    <v>      -0.00000000      -0.00000000       0.09615385 </v>
   </varray>
  </crystal>
  <varray name="positions" >
   <v>       0.00000000       0.00000000       0.00000000 </v>
   <v>       0.00000000       0.00000000       0.12500000 </v>
   <v>       0.00000000       0.00000000       0.25000000 </v>
   <v>       0.00000000       0.00000000       0.37500000 </v>
   <v>       0.00000000       0.00000000       0.50000000 </v>
   <v>       0.00000000       0.00000000       0.62500000 </v>
   <v>       0.00000000       0.00000000       0.75000000 </v>
   <v>       0.00000000       0.00000000       0.87500000 </v>
  </varray>
 </structure>
 <calculation>
  <scstep>
   <time name="dav">    0.41    0.41</time>
   <time name="total">    0.98    0.98</time>
   <energy>
    <i name="alphaZ">      0.06663022 </i>
    <i name="ewald">     90.31736808 </i>
    <i name="hartreedc">   -144.01293283 </i>
    <i name="XCdc">     17.32611492 </i>
    <i name="pawpsdc">     17.07221949 </i>
    <i name="pawaedc">    -17.14324176 </i>
    <i name="eentropy">     -0.08147201 </i>
    <i name="bandstr">    -58.01131788 </i>
    <i name="atom">     99.56620307 </i>
    <i name="e_fr_energy">      5.09957130 </i>
    <i name="e_wo_entrp">      5.18104331 </i>
    <i name="e_0_energy">      5.14030731 </i>
   </energy>
  </scstep>
  <scstep>
   <time name="dav">    0.54    0.54</time>
   <time name="total">    0.54    0.54</time>
   <energy>
    <i name="e_fr_energy">    -18.04569049 </i>
    <i name="e_wo_entrp">    -18.04561775 </i>
    <i name="e_0_energy">    -18.04565412 </i>
   </energy>
  </scstep>
  <scstep>
   <time name="dav">    0.41    0.41</time>
   <time name="total">    0.41    0.41</time>
   <energy>
    <i name="e_fr_energy">    -19.54614409 </i>
    <i name="e_wo_entrp">    -19.32119207 </i>
    <i name="e_0_energy">    -19.43366808 </i>
   </energy>
  </scstep>
  <scstep>
   <time name="dav">    0.44    0.44</time>
   <time name="total">    0.44    0.44</time>
   <energy>
    <i name="e_fr_energy">    -19.58599908 </i>
    <i name="e_wo_entrp">    -19.36032332 </i>
    <i name="e_0_energy">    -19.47316120 </i>
   </energy>
  </scstep>
  <scstep>
   <time name="dav">    0.43    0.43</time>
   <time name="total">    0.61    0.61</time>
   <energy>
    <i name="e_fr_energy">    -19.58664692 </i>
    <i name="e_wo_entrp">    -19.36097109 </i>
    <i name="e_0_energy">    -19.47380901 </i>
   </energy>
  </scstep>
  <scstep>
   <time name="dav">    0.45    0.45</time>
   <time name="total">    1.22    1.22</time>
   <energy>
    <i name="e_fr_energy">    -19.49721183 </i>
    <i name="e_wo_entrp">    -19.27153599 </i>
    <i name="e_0_energy">    -19.38437391 </i>
   </energy>
  </scstep>
  <scstep>
   <time name="dav">    0.40    0.40</time>
   <time name="total">    1.16    1.16</time>
   <energy>
    <i name="e_fr_energy">    -19.41028836 </i>
    <i name="e_wo_entrp">    -19.18461253 </i>
    <i name="e_0_energy">    -19.29745044 </i>
   </energy>
  </scstep>
  <scstep>
   <time name="dav">    0.36    0.36</time>
   <time name="total">    1.13    1.13</time>
   <energy>
    <i name="e_fr_energy">    -19.41085605 </i>
    <i name="e_wo_entrp">    -19.18518022 </i>
    <i name="e_0_energy">    -19.29801814 </i>
   </energy>
  </scstep>
  <scstep>
   <time name="dav">    0.42    0.42</time>
   <time name="total">    1.18    1.18</time>
   <energy>
    <i name="e_fr_energy">    -19.41138621 </i>
    <i name="e_wo_entrp">    -19.18571038 </i>
    <i name="e_0_energy">    -19.29854829 </i>
   </energy>
  </scstep>
  <scstep>
   <time name="dav">    0.36    0.36</time>
   <time name="total">    1.13    1.13</time>
   <energy>
    <i name="e_fr_energy">    -19.41306787 </i>
    <i name="e_wo_entrp">    -19.18739204 </i>
    <i name="e_0_energy">    -19.30022996 </i>
   </energy>
  </scstep>
  <scstep>
   <time name="dav">    0.38    0.38</time>
   <time name="total">    1.14    1.14</time>
   <energy>
    <i name="e_fr_energy">    -19.41317341 </i>
    <i name="e_wo_entrp">    -19.18749758 </i>
    <i name="e_0_energy">    -19.30033550 </i>
   </energy>
  </scstep>
  <scstep>
   <time name="dav">    0.39    0.39</time>
   <time name="total">    1.16    1.17</time>
   <energy>
    <i name="e_fr_energy">    -19.41507224 </i>
    <i name="e_wo_entrp">    -19.18939641 </i>
    <i name="e_0_energy">    -19.30223433 </i>
   </energy>
  </scstep>
  <scstep>
   <time name="dav">    0.36    0.36</time>
   <time name="total">    1.13    1.13</time>
   <energy>
    <i name="e_fr_energy">    -19.41644573 </i>
    <i name="e_wo_entrp">    -19.19076989 </i>
    <i name="e_0_energy">    -19.30360781 </i>
   </energy>
  </scstep>
  <scstep>
   <time name="dav">    0.36    0.36</time>
   <time name="total">    1.12    1.12</time>
   <energy>
    <i name="e_fr_energy">    -19.41671164 </i>
    <i name="e_wo_entrp">    -19.19103580 </i>
    <i name="e_0_energy">    -19.30387372 </i>
   </energy>
  </scstep>
  <scstep>
   <time name="dav">    0.36    0.36</time>
   <time name="total">    1.13    1.13</time>
   <energy>
    <i name="e_fr_energy">    -19.41698875 </i>
    <i name="e_wo_entrp">    -19.19131292 </i>
    <i name="e_0_energy">    -19.30415084 </i>
   </energy>
  </scstep>
  <scstep>
   <time name="dav">    0.36    0.36</time>
   <time name="total">    1.12    1.12</time>
   <energy>
    <i name="e_fr_energy">    -19.41700999 </i>
    <i name="e_wo_entrp">    -19.19133415 </i>
    <i name="e_0_energy">    -19.30417207 </i>
   </energy>
  </scstep>
  <scstep>
   <time name="dav">    0.36    0.36</time>
   <time name="total">    1.12    1.12</time>
   <energy>
    <i name="e_fr_energy">    -19.41704580 </i>
    <i name="e_wo_entrp">    -19.19136997 </i>
    <i name="e_0_energy">    -19.30420789 </i>
   </energy>
  </scstep>
  <scstep>
   <time name="dav">    0.36    0.36</time>
   <time name="total">    1.12    1.12</time>
   <energy>
    <i name="e_fr_energy">    -19.41705345 </i>
    <i name="e_wo_entrp">    -19.19137761 </i>
    <i name="e_0_energy">    -19.30421553 </i>
   </energy>
  </scstep>
  <scstep>
   <time name="dav">    0.36    0.36</time>
   <time name="total">    1.13    1.13</time>
   <energy>
    <i name="e_fr_energy">    -19.41705543 </i>
    <i name="e_wo_entrp">    -19.19137960 </i>
    <i name="e_0_energy">    -19.30421752 </i>
   </energy>
  </scstep>
  <scstep>
   <time name="dav">    0.37    0.37</time>
   <time name="total">    1.14    1.14</time>
   <energy>
    <i name="e_fr_energy">    -19.41705831 </i>
    <i name="e_wo_entrp">    -19.19138248 </i>
    <i name="e_0_energy">    -19.30422039 </i>
   </energy>
  </scstep>
  <scstep>
   <time name="dav">    0.40    0.40</time>
   <time name="total">    0.99    0.99</time>
   <energy>
    <i name="alphaZ">      0.06663022 </i>
    <i name="ewald">     90.31736808 </i>
    <i name="hartreedc">   -154.12072036 </i>
    <i name="XCdc">     18.51794817 </i>
    <i name="pawpsdc">     40.79557329 </i>
    <i name="pawaedc">    -40.88177791 </i>
    <i name="eentropy">     -0.22567583 </i>
    <i name="bandstr">    -73.45260751 </i>
    <i name="atom">     99.56620307 </i>
    <i name="e_fr_energy">    -19.41705878 </i>
    <i name="e_wo_entrp">    -19.19138295 </i>
    <i name="e_0_energy">    -19.30422086 </i>
   </energy>
  </scstep>
  <structure>
   <crystal>
    <varray name="basis" >
     <v>      15.00000000       0.00000000       0.00000000 </v>
     <v>       0.00000000      15.00000000       0.00000000 </v>
     <v>       0.00000000       0.00000000      10.40000000 </v>
    </varray>
    <i name="volume">   2340.00000000 </i>
    <varray name="rec_basis" >
     <v>       0.06666667      -0.00000000       0.00000000 </v>
     <v>       0.00000000       0.06666667       0.00000000 </v>
     <v>      -0.00000000      -0.00000000       0.09615385 </v>
    </varray>
   </crystal>
   <varray name="positions" >
    <v>       0.00000000       0.00000000       0.00000000 </v>
    <v>       0.00000000       0.00000000       0.12500000 </v>
    <v>       0.00000000       0.00000000       0.25000000 </v>
    <v>       0.00000000       0.00000000       0.37500000 </v>
    <v>       0.00000000       0.00000000       0.50000000 </v>
    <v>       0.00000000       0.00000000       0.62500000 </v>
    <v>       0.00000000       0.00000000       0.75000000 </v>
    <v>       0.00000000       0.00000000       0.87500000 </v>
   </varray>
  </structure>
  <varray name="forces" >
   <v>       0.00000000      -0.00000000       0.00000000 </v>
   <v>       0.00000000       0.00000000      -0.00000000 </v>
   <v>      -0.00000000      -0.00000000       0.00000000 </v>
   <v>      -0.00000000      -0.00000000      -0.00000000 </v>
   <v>       0.00000000      -0.00000000      -0.00000000 </v>
   <v>      -0.00000000       0.00000000      -0.00000000 </v>
   <v>      -0.00000000      -0.00000000       0.00000000 </v>
   <v>       0.00000000       0.00000000      -0.00000000 </v>
  </varray>
  <varray name="stress" >
   <v>      -0.69037483      -0.00000000      -0.00000000 </v>
   <v>      -0.00000000      -0.69037483      -0.00000000 </v>
   <v>      -0.00000000      -0.00000000     -11.55191442 </v>
  </varray>
  <energy>
   <i name="e_fr_energy">    -19.41705878 </i>
   <i name="e_wo_entrp">    -19.30422086 </i>
   <i name="e_0_energy">     -0.22567583 </i>
  </energy>
  <time name="totalsc">   22.17   22.17</time>
  <eigenvalues>
   <array>
    <dimension dim="1">band</dimension>
    <dimension dim="2">kpoint</dimension>
    <dimension dim="3">spin</dimension>
    <field>eigene</field>
    <field>occ</field>
    <set>
     <set comment="spin 1">
      <set comment="kpoint 1">
       <r>  -11.2017    1.0000 </r>
       <r>   -9.8495    1.0000 </r>
       <r>   -9.8495    1.0000 </r>
       <r>   -5.8257    0.5000 </r>
       <r>   -5.8257    0.5000 </r>
       <r>   -0.1635    0.0000 </r>
       <r>   -0.1635    0.0000 </r>
       <r>   -0.1190    0.0000 </r>
       <r>    0.5908    0.0000 </r>
       <r>    0.6008    0.0000 </r>
       <r>    0.6612    0.0000 </r>
       <r>    0.6612    0.0000 </r>
      </set>
     </set>
     <set comment="spin 2">
      <set comment="kpoint 1">
       <r>  -11.2017    1.0000 </r>
       <r>   -9.8495    1.0000 </r>
       <r>   -9.8495    1.0000 </r>
       <r>   -5.8257    0.5000 </r>
       <r>   -5.8257    0.5000 </r>
       <r>   -0.1639    0.0000 </r>
       <r>   -0.1639    0.0000 </r>
       <r>   -0.1190    0.0000 </r>
       <r>    0.5916    0.0000 </r>
       <r>    0.6018    0.0000 </r>
       <r>    0.6612    0.0000 </r>
       <r>    0.6612    0.0000 </r>
      </set>
     </set>
    </set>
   </array>
  </eigenvalues>
  <separator name="orbital magnetization" >
   <v name="MAGDIPOLOUT">      0.00000000      0.00000000      0.00000000</v>
  </separator>
  <dos>
   <i name="efermi">     -5.82572488 </i>
   <total>
    <array>
     <dimension dim="1">gridpoints</dimension>
     <dimension dim="2">spin</dimension>
     <field>energy</field>
     <field>total</field>
     <field>integrated</field>
     <set>
      <set comment="spin 1">
       <r>   -13.2017     0.0000     0.0000 </r>
       <r>   -13.1488     0.0000     0.0000 </r>
       <r>   -13.0959     0.0000     0.0000 </r>
       <r>   -13.0430     0.0000     0.0000 </r>
       <r>   -12.9901     0.0000     0.0000 </r>
       <r>   -12.9373     0.0000     0.0000 </r>
       <r>   -12.8844     0.0000     0.0000 </r>
       <r>   -12.8315     0.0000     0.0000 </r>
       <r>   -12.7786     0.0000     0.0000 </r>
       <r>   -12.7258     0.0000     0.0000 </r>
       <r>   -12.6729     0.0000     0.0000 </r>
       <r>   -12.6200     0.0000     0.0000 </r>
       <r>   -12.5671     0.0000     0.0000 </r>
       <r>   -12.5143     0.0000     0.0000 </r>
       <r>   -12.4614     0.0000     0.0000 </r>
       <r>   -12.4085     0.0000     0.0000 </r>
       <r>   -12.3556     0.0000     0.0000 </r>
       <r>   -12.3028     0.0000     0.0000 </r>
       <r>   -12.2499     0.0000     0.0000 </r>
       <r>   -12.1970     0.0000     0.0000 </r>
       <r>   -12.1441     0.0000     0.0000 </r>
       <r>   -12.0913     0.0000     0.0000 </r>
       <r>   -12.0384     0.0000     0.0000 </r>
       <r>   -11.9855     0.0000     0.0000 </r>
       <r>   -11.9326     0.0000     0.0000 </r>
       <r>   -11.8797     0.0000     0.0000 </r>
       <r>   -11.8269     0.0002     0.0000 </r>
       <r>   -11.7740     0.0008     0.0001 </r>
       <r>   -11.7211     0.0035     0.0002 </r>
       <r>   -11.6682     0.0138     0.0010 </r>
       <r>   -11.6154     0.0467     0.0034 </r>
       <r>   -11.5625     0.1378     0.0107 </r>
       <r>   -11.5096     0.3538     0.0294 </r>
       <r>   -11.4567     0.7913     0.0713 </r>
       <r>   -11.4039     1.5412     0.1528 </r>
       <r>   -11.3510     2.6142     0.2910 </r>
       <r>   -11.2981     3.8621     0.4952 </r>
       <r>   -11.2452     4.9692     0.7580 </r>
       <r>   -11.1924     5.5686     1.0524 </r>
       <r>   -11.1395     5.4350     1.3398 </r>
       <r>   -11.0866     4.6200     1.5841 </r>
       <r>   -11.0337     3.4203     1.7649 </r>
       <r>   -10.9809     2.2054     1.8815 </r>
       <r>   -10.9280     1.2385     1.9470 </r>
       <r>   -10.8751     0.6057     1.9791 </r>
       <r>   -10.8222     0.2580     1.9927 </r>
       <r>   -10.7693     0.0957     1.9978 </r>
       <r>   -10.7165     0.0309     1.9994 </r>
       <r>   -10.6636     0.0087     1.9999 </r>
       <r>   -10.6107     0.0021     2.0000 </r>
       <r>   -10.5578     0.0005     2.0000 </r>
       <r>   -10.5050     0.0002     2.0000 </r>
       <r>   -10.4521     0.0006     2.0000 </r>
       <r>   -10.3992     0.0031     2.0002 </r>
       <r>   -10.3463     0.0129     2.0009 </r>
       <r>   -10.2935     0.0473     2.0034 </r>
       <r>   -10.2406     0.1509     2.0114 </r>
       <r>   -10.1877     0.4193     2.0335 </r>
       <r>   -10.1348     1.0151     2.0872 </r>
       <r>   -10.0820     2.1399     2.2004 </r>
       <r>   -10.0291     3.9288     2.4081 </r>
       <r>    -9.9762     6.2823     2.7403 </r>
       <r>    -9.9233     8.7491     3.2029 </r>
       <r>    -9.8705    10.6119     3.7640 </r>
       <r>    -9.8176    11.2102     4.3568 </r>
       <r>    -9.7647    10.3140     4.9021 </r>
       <r>    -9.7118     8.2648     5.3391 </r>
       <r>    -9.6589     5.7680     5.6441 </r>
       <r>    -9.6061     3.5059     5.8295 </r>
       <r>    -9.5532     1.8559     5.9276 </r>
       <r>    -9.5003     0.8556     5.9729 </r>
       <r>    -9.4474     0.3436     5.9911 </r>
       <r>    -9.3946     0.1201     5.9974 </r>
       <r>    -9.3417     0.0366     5.9993 </r>
       <r>    -9.2888     0.0097     5.9999 </r>
       <r>    -9.2359     0.0022     6.0000 </r>
       <r>    -9.1831     0.0005     6.0000 </r>
       <r>    -9.1302     0.0001     6.0000 </r>
       <r>    -9.0773     0.0000     6.0000 </r>
       <r>    -9.0244     0.0000     6.0000 </r>
       <r>    -8.9716     0.0000     6.0000 </r>
       <r>    -8.9187     0.0000     6.0000 </r>
       <r>    -8.8658     0.0000     6.0000 </r>
       <r>    -8.8129     0.0000     6.0000 </r>
       <r>    -8.7601     0.0000     6.0000 </r>
       <r>    -8.7072     0.0000     6.0000 </r>
       <r>    -8.6543     0.0000     6.0000 </r>
       <r>    -8.6014     0.0000     6.0000 </r>
       <r>    -8.5485     0.0000     6.0000 </r>
       <r>    -8.4957     0.0000     6.0000 </r>
       <r>    -8.4428     0.0000     6.0000 </r>
       <r>    -8.3899     0.0000     6.0000 </r>
       <r>    -8.3370     0.0000     6.0000 </r>
       <r>    -8.2842     0.0000     6.0000 </r>
       <r>    -8.2313     0.0000     6.0000 </r>
       <r>    -8.1784     0.0000     6.0000 </r>
       <r>    -8.1255     0.0000     6.0000 </r>
       <r>    -8.0727     0.0000     6.0000 </r>
       <r>    -8.0198     0.0000     6.0000 </r>
       <r>    -7.9669     0.0000     6.0000 </r>
       <r>    -7.9140     0.0000     6.0000 </r>
       <r>    -7.8612     0.0000     6.0000 </r>
       <r>    -7.8083     0.0000     6.0000 </r>
       <r>    -7.7554     0.0000     6.0000 </r>
       <r>    -7.7025     0.0000     6.0000 </r>
       <r>    -7.6497     0.0000     6.0000 </r>
       <r>    -7.5968     0.0000     6.0000 </r>
       <r>    -7.5439     0.0000     6.0000 </r>
       <r>    -7.4910     0.0000     6.0000 </r>
       <r>    -7.4381     0.0000     6.0000 </r>
       <r>    -7.3853     0.0000     6.0000 </r>
       <r>    -7.3324     0.0000     6.0000 </r>
       <r>    -7.2795     0.0000     6.0000 </r>
       <r>    -7.2266     0.0000     6.0000 </r>
       <r>    -7.1738     0.0000     6.0000 </r>
       <r>    -7.1209     0.0000     6.0000 </r>
       <r>    -7.0680     0.0000     6.0000 </r>
       <r>    -7.0151     0.0000     6.0000 </r>
       <r>    -6.9623     0.0000     6.0000 </r>
       <r>    -6.9094     0.0000     6.0000 </r>
       <r>    -6.8565     0.0000     6.0000 </r>
       <r>    -6.8036     0.0000     6.0000 </r>
       <r>    -6.7508     0.0000     6.0000 </r>
       <r>    -6.6979     0.0000     6.0000 </r>
       <r>    -6.6450     0.0000     6.0000 </r>
       <r>    -6.5921     0.0000     6.0000 </r>
       <r>    -6.5393     0.0000     6.0000 </r>
       <r>    -6.4864     0.0001     6.0000 </r>
       <r>    -6.4335     0.0005     6.0000 </r>
       <r>    -6.3806     0.0026     6.0002 </r>
       <r>    -6.3277     0.0113     6.0008 </r>
       <r>    -6.2749     0.0419     6.0030 </r>
       <r>    -6.2220     0.1356     6.0102 </r>
       <r>    -6.1691     0.3820     6.0304 </r>
       <r>    -6.1162     0.9371     6.0799 </r>
       <r>    -6.0634     2.0023     6.1858 </r>
       <r>    -6.0105     3.7259     6.3828 </r>
       <r>    -5.9576     6.0384     6.7021 </r>
       <r>    -5.9047     8.5232     7.1528 </r>
       <r>    -5.8519    10.4778     7.7068 </r>
       <r>    -5.7990    11.2184     8.3000 </r>
       <r>    -5.7461    10.4612     8.8531 </r>
       <r>    -5.6932     8.4962     9.3024 </r>
       <r>    -5.6404     6.0097     9.6201 </r>
       <r>    -5.5875     3.7023     9.8159 </r>
       <r>    -5.5346     1.9864     9.9209 </r>
       <r>    -5.4817     0.9282     9.9700 </r>
       <r>    -5.4288     0.3777     9.9900 </r>
       <r>    -5.3760     0.1339     9.9971 </r>
       <r>    -5.3231     0.0413     9.9992 </r>
       <r>    -5.2702     0.0111     9.9998 </r>
       <r>    -5.2173     0.0026    10.0000 </r>
       <r>    -5.1645     0.0005    10.0000 </r>
       <r>    -5.1116     0.0001    10.0000 </r>
       <r>    -5.0587     0.0000    10.0000 </r>
       <r>    -5.0058     0.0000    10.0000 </r>
       <r>    -4.9530     0.0000    10.0000 </r>
       <r>    -4.9001     0.0000    10.0000 </r>
       <r>    -4.8472     0.0000    10.0000 </r>
       <r>    -4.7943     0.0000    10.0000 </r>
       <r>    -4.7415     0.0000    10.0000 </r>
       <r>    -4.6886     0.0000    10.0000 </r>
       <r>    -4.6357     0.0000    10.0000 </r>
       <r>    -4.5828     0.0000    10.0000 </r>
       <r>    -4.5300     0.0000    10.0000 </r>
       <r>    -4.4771     0.0000    10.0000 </r>
       <r>    -4.4242     0.0000    10.0000 </r>
       <r>    -4.3713     0.0000    10.0000 </r>
       <r>    -4.3184     0.0000    10.0000 </r>
       <r>    -4.2656     0.0000    10.0000 </r>
       <r>    -4.2127     0.0000    10.0000 </r>
       <r>    -4.1598     0.0000    10.0000 </r>
       <r>    -4.1069     0.0000    10.0000 </r>
       <r>    -4.0541     0.0000    10.0000 </r>
       <r>    -4.0012     0.0000    10.0000 </r>
       <r>    -3.9483     0.0000    10.0000 </r>
       <r>    -3.8954     0.0000    10.0000 </r>
       <r>    -3.8426     0.0000    10.0000 </r>
       <r>    -3.7897     0.0000    10.0000 </r>
       <r>    -3.7368     0.0000    10.0000 </r>
       <r>    -3.6839     0.0000    10.0000 </r>
       <r>    -3.6311     0.0000    10.0000 </r>
       <r>    -3.5782     0.0000    10.0000 </r>
       <r>    -3.5253     0.0000    10.0000 </r>
       <r>    -3.4724     0.0000    10.0000 </r>
       <r>    -3.4196     0.0000    10.0000 </r>
       <r>    -3.3667     0.0000    10.0000 </r>
       <r>    -3.3138     0.0000    10.0000 </r>
       <r>    -3.2609     0.0000    10.0000 </r>
       <r>    -3.2080     0.0000    10.0000 </r>
       <r>    -3.1552     0.0000    10.0000 </r>
       <r>    -3.1023     0.0000    10.0000 </r>
       <r>    -3.0494     0.0000    10.0000 </r>
       <r>    -2.9965     0.0000    10.0000 </r>
       <r>    -2.9437     0.0000    10.0000 </r>
       <r>    -2.8908     0.0000    10.0000 </r>
       <r>    -2.8379     0.0000    10.0000 </r>
       <r>    -2.7850     0.0000    10.0000 </r>
       <r>    -2.7322     0.0000    10.0000 </r>
       <r>    -2.6793     0.0000    10.0000 </r>
       <r>    -2.6264     0.0000    10.0000 </r>
       <r>    -2.5735     0.0000    10.0000 </r>
       <r>    -2.5207     0.0000    10.0000 </r>
       <r>    -2.4678     0.0000    10.0000 </r>
       <r>    -2.4149     0.0000    10.0000 </r>
       <r>    -2.3620     0.0000    10.0000 </r>
       <r>    -2.3092     0.0000    10.0000 </r>
       <r>    -2.2563     0.0000    10.0000 </r>
       <r>    -2.2034     0.0000    10.0000 </r>
       <r>    -2.1505     0.0000    10.0000 </r>
       <r>    -2.0976     0.0000    10.0000 </r>
       <r>    -2.0448     0.0000    10.0000 </r>
       <r>    -1.9919     0.0000    10.0000 </r>
       <r>    -1.9390     0.0000    10.0000 </r>
       <r>    -1.8861     0.0000    10.0000 </r>
       <r>    -1.8333     0.0000    10.0000 </r>
       <r>    -1.7804     0.0000    10.0000 </r>
       <r>    -1.7275     0.0000    10.0000 </r>
       <r>    -1.6746     0.0000    10.0000 </r>
       <r>    -1.6218     0.0000    10.0000 </r>
       <r>    -1.5689     0.0000    10.0000 </r>
       <r>    -1.5160     0.0000    10.0000 </r>
       <r>    -1.4631     0.0000    10.0000 </r>
       <r>    -1.4103     0.0000    10.0000 </r>
       <r>    -1.3574     0.0000    10.0000 </r>
       <r>    -1.3045     0.0000    10.0000 </r>
       <r>    -1.2516     0.0000    10.0000 </r>
       <r>    -1.1988     0.0000    10.0000 </r>
       <r>    -1.1459     0.0000    10.0000 </r>
       <r>    -1.0930     0.0000    10.0000 </r>
       <r>    -1.0401     0.0000    10.0000 </r>
       <r>    -0.9872     0.0000    10.0000 </r>
       <r>    -0.9344     0.0000    10.0000 </r>
       <r>    -0.8815     0.0000    10.0000 </r>
       <r>    -0.8286     0.0001    10.0000 </r>
       <r>    -0.7757     0.0005    10.0000 </r>
       <r>    -0.7229     0.0026    10.0002 </r>
       <r>    -0.6700     0.0115    10.0008 </r>
       <r>    -0.6171     0.0440    10.0031 </r>
       <r>    -0.5642     0.1465    10.0109 </r>
       <r>    -0.5114     0.4256    10.0334 </r>
       <r>    -0.4585     1.0789    10.0904 </r>
       <r>    -0.4056     2.3868    10.2166 </r>
       <r>    -0.3527     4.6089    10.4603 </r>
       <r>    -0.2999     7.7696    10.8711 </r>
       <r>    -0.2470    11.4363    11.4759 </r>
       <r>    -0.1941    14.7004    12.2532 </r>
       <r>    -0.1412    16.5039    13.1258 </r>
       <r>    -0.0884    16.1852    13.9816 </r>
       <r>    -0.0355    13.8670    14.7149 </r>
       <r>     0.0174    10.3815    15.2638 </r>
       <r>     0.0703     6.7962    15.6232 </r>
       <r>     0.1232     3.9086    15.8298 </r>
       <r>     0.1760     2.0377    15.9376 </r>
       <r>     0.2289     1.1539    15.9986 </r>
       <r>     0.2818     1.1556    16.0597 </r>
       <r>     0.3347     2.0798    16.1697 </r>
       <r>     0.3875     4.1219    16.3876 </r>
       <r>     0.4404     7.4433    16.7812 </r>
       <r>     0.4933    11.8508    17.4078 </r>
       <r>     0.5462    16.5608    18.2835 </r>
       <r>     0.5990    20.3039    19.3571 </r>
       <r>     0.6519    21.8404    20.5119 </r>
       <r>     0.7048    20.6127    21.6018 </r>
       <r>     0.7577    17.0677    22.5043 </r>
       <r>     0.8105    12.3966    23.1598 </r>
       <r>     0.8634     7.8959    23.5773 </r>
       <r>     0.9163     4.4088    23.8104 </r>
       <r>     0.9692     2.1571    23.9245 </r>
       <r>     1.0221     0.9244    23.9734 </r>
       <r>     1.0749     0.3468    23.9917 </r>
       <r>     1.1278     0.1138    23.9977 </r>
       <r>     1.1807     0.0327    23.9994 </r>
       <r>     1.2336     0.0082    23.9999 </r>
       <r>     1.2864     0.0018    24.0000 </r>
       <r>     1.3393     0.0003    24.0000 </r>
       <r>     1.3922     0.0001    24.0000 </r>
       <r>     1.4451     0.0000    24.0000 </r>
       <r>     1.4979     0.0000    24.0000 </r>
       <r>     1.5508     0.0000    24.0000 </r>
       <r>     1.6037     0.0000    24.0000 </r>
       <r>     1.6566     0.0000    24.0000 </r>
       <r>     1.7094     0.0000    24.0000 </r>
       <r>     1.7623     0.0000    24.0000 </r>
       <r>     1.8152     0.0000    24.0000 </r>
       <r>     1.8681     0.0000    24.0000 </r>
       <r>     1.9209     0.0000    24.0000 </r>
       <r>     1.9738     0.0000    24.0000 </r>
       <r>     2.0267     0.0000    24.0000 </r>
       <r>     2.0796     0.0000    24.0000 </r>
       <r>     2.1325     0.0000    24.0000 </r>
       <r>     2.1853     0.0000    24.0000 </r>
       <r>     2.2382     0.0000    24.0000 </r>
       <r>     2.2911     0.0000    24.0000 </r>
       <r>     2.3440     0.0000    24.0000 </r>
       <r>     2.3968     0.0000    24.0000 </r>
       <r>     2.4497     0.0000    24.0000 </r>
       <r>     2.5026     0.0000    24.0000 </r>
       <r>     2.5555     0.0000    24.0000 </r>
       <r>     2.6083     0.0000    24.0000 </r>
       <r>     2.6612     0.0000    24.0000 </r>
      </set>
      <set comment="spin 2">
       <r>   -13.2017     0.0000     0.0000 </r>
       <r>   -13.1488     0.0000     0.0000 </r>
       <r>   -13.0959     0.0000     0.0000 </r>
       <r>   -13.0430     0.0000     0.0000 </r>
       <r>   -12.9901     0.0000     0.0000 </r>
       <r>   -12.9373     0.0000     0.0000 </r>
       <r>   -12.8844     0.0000     0.0000 </r>
       <r>   -12.8315     0.0000     0.0000 </r>
       <r>   -12.7786     0.0000     0.0000 </r>
       <r>   -12.7258     0.0000     0.0000 </r>
       <r>   -12.6729     0.0000     0.0000 </r>
       <r>   -12.6200     0.0000     0.0000 </r>
       <r>   -12.5671     0.0000     0.0000 </r>
       <r>   -12.5143     0.0000     0.0000 </r>
       <r>   -12.4614     0.0000     0.0000 </r>
       <r>   -12.4085     0.0000     0.0000 </r>
       <r>   -12.3556     0.0000     0.0000 </r>
       <r>   -12.3028     0.0000     0.0000 </r>
       <r>   -12.2499     0.0000     0.0000 </r>
       <r>   -12.1970     0.0000     0.0000 </r>
       <r>   -12.1441     0.0000     0.0000 </r>
       <r>   -12.0913     0.0000     0.0000 </r>
       <r>   -12.0384     0.0000     0.0000 </r>
       <r>   -11.9855     0.0000     0.0000 </r>
       <r>   -11.9326     0.0000     0.0000 </r>
       <r>   -11.8797     0.0000     0.0000 </r>
       <r>   -11.8269     0.0002     0.0000 </r>
       <r>   -11.7740     0.0008     0.0001 </r>
       <r>   -11.7211     0.0035     0.0002 </r>
       <r>   -11.6682     0.0138     0.0010 </r>
       <r>   -11.6154     0.0467     0.0034 </r>
       <r>   -11.5625     0.1378     0.0107 </r>
       <r>   -11.5096     0.3538     0.0294 </r>
       <r>   -11.4567     0.7913     0.0713 </r>
       <r>   -11.4039     1.5412     0.1528 </r>
       <r>   -11.3510     2.6142     0.2910 </r>
       <r>   -11.2981     3.8621     0.4952 </r>
       <r>   -11.2452     4.9692     0.7580 </r>
       <r>   -11.1924     5.5686     1.0524 </r>
       <r>   -11.1395     5.4350     1.3398 </r>
       <r>   -11.0866     4.6200     1.5841 </r>
       <r>   -11.0337     3.4203     1.7649 </r>
       <r>   -10.9809     2.2054     1.8815 </r>
       <r>   -10.9280     1.2385     1.9470 </r>
       <r>   -10.8751     0.6057     1.9791 </r>
       <r>   -10.8222     0.2580     1.9927 </r>
       <r>   -10.7693     0.0957     1.9978 </r>
       <r>   -10.7165     0.0309     1.9994 </r>
       <r>   -10.6636     0.0087     1.9999 </r>
       <r>   -10.6107     0.0021     2.0000 </r>
       <r>   -10.5578     0.0005     2.0000 </r>
       <r>   -10.5050     0.0002     2.0000 </r>
       <r>   -10.4521     0.0006     2.0000 </r>
       <r>   -10.3992     0.0031     2.0002 </r>
       <r>   -10.3463     0.0129     2.0009 </r>
       <r>   -10.2935     0.0473     2.0034 </r>
       <r>   -10.2406     0.1509     2.0114 </r>
       <r>   -10.1877     0.4193     2.0335 </r>
       <r>   -10.1348     1.0151     2.0872 </r>
       <r>   -10.0820     2.1399     2.2004 </r>
       <r>   -10.0291     3.9288     2.4081 </r>
       <r>    -9.9762     6.2823     2.7403 </r>
       <r>    -9.9233     8.7490     3.2029 </r>
       <r>    -9.8705    10.6118     3.7640 </r>
       <r>    -9.8176    11.2102     4.3568 </r>
       <r>    -9.7647    10.3140     4.9021 </r>
       <r>    -9.7118     8.2648     5.3391 </r>
       <r>    -9.6589     5.7680     5.6441 </r>
       <r>    -9.6061     3.5059     5.8295 </r>
       <r>    -9.5532     1.8559     5.9276 </r>
       <r>    -9.5003     0.8556     5.9729 </r>
       <r>    -9.4474     0.3436     5.9911 </r>
       <r>    -9.3946     0.1201     5.9974 </r>
       <r>    -9.3417     0.0366     5.9993 </r>
       <r>    -9.2888     0.0097     5.9999 </r>
       <r>    -9.2359     0.0022     6.0000 </r>
       <r>    -9.1831     0.0005     6.0000 </r>
       <r>    -9.1302     0.0001     6.0000 </r>
       <r>    -9.0773     0.0000     6.0000 </r>
       <r>    -9.0244     0.0000     6.0000 </r>
       <r>    -8.9716     0.0000     6.0000 </r>
       <r>    -8.9187     0.0000     6.0000 </r>
       <r>    -8.8658     0.0000     6.0000 </r>
       <r>    -8.8129     0.0000     6.0000 </r>
       <r>    -8.7601     0.0000     6.0000 </r>
       <r>    -8.7072     0.0000     6.0000 </r>
       <r>    -8.6543     0.0000     6.0000 </r>
       <r>    -8.6014     0.0000     6.0000 </r>
       <r>    -8.5485     0.0000     6.0000 </r>
       <r>    -8.4957     0.0000     6.0000 </r>
       <r>    -8.4428     0.0000     6.0000 </r>
       <r>    -8.3899     0.0000     6.0000 </r>
       <r>    -8.3370     0.0000     6.0000 </r>
       <r>    -8.2842     0.0000     6.0000 </r>
       <r>    -8.2313     0.0000     6.0000 </r>
       <r>    -8.1784     0.0000     6.0000 </r>
       <r>    -8.1255     0.0000     6.0000 </r>
       <r>    -8.0727     0.0000     6.0000 </r>
       <r>    -8.0198     0.0000     6.0000 </r>
       <r>    -7.9669     0.0000     6.0000 </r>
       <r>    -7.9140     0.0000     6.0000 </r>
       <r>    -7.8612     0.0000     6.0000 </r>
       <r>    -7.8083     0.0000     6.0000 </r>
       <r>    -7.7554     0.0000     6.0000 </r>
       <r>    -7.7025     0.0000     6.0000 </r>
       <r>    -7.6497     0.0000     6.0000 </r>
       <r>    -7.5968     0.0000     6.0000 </r>
       <r>    -7.5439     0.0000     6.0000 </r>
       <r>    -7.4910     0.0000     6.0000 </r>
       <r>    -7.4381     0.0000     6.0000 </r>
       <r>    -7.3853     0.0000     6.0000 </r>
       <r>    -7.3324     0.0000     6.0000 </r>
       <r>    -7.2795     0.0000     6.0000 </r>
       <r>    -7.2266     0.0000     6.0000 </r>
       <r>    -7.1738     0.0000     6.0000 </r>
       <r>    -7.1209     0.0000     6.0000 </r>
       <r>    -7.0680     0.0000     6.0000 </r>
       <r>    -7.0151     0.0000     6.0000 </r>
       <r>    -6.9623     0.0000     6.0000 </r>
       <r>    -6.9094     0.0000     6.0000 </r>
       <r>    -6.8565     0.0000     6.0000 </r>
       <r>    -6.8036     0.0000     6.0000 </r>
       <r>    -6.7508     0.0000     6.0000 </r>
       <r>    -6.6979     0.0000     6.0000 </r>
       <r>    -6.6450     0.0000     6.0000 </r>
       <r>    -6.5921     0.0000     6.0000 </r>
       <r>    -6.5393     0.0000     6.0000 </r>
       <r>    -6.4864     0.0001     6.0000 </r>
       <r>    -6.4335     0.0005     6.0000 </r>
       <r>    -6.3806     0.0026     6.0002 </r>
       <r>    -6.3277     0.0113     6.0008 </r>
       <r>    -6.2749     0.0419     6.0030 </r>
       <r>    -6.2220     0.1356     6.0102 </r>
       <r>    -6.1691     0.3820     6.0304 </r>
       <r>    -6.1162     0.9371     6.0799 </r>
       <r>    -6.0634     2.0023     6.1858 </r>
       <r>    -6.0105     3.7259     6.3828 </r>
       <r>    -5.9576     6.0384     6.7021 </r>
       <r>    -5.9047     8.5232     7.1527 </r>
       <r>    -5.8519    10.4778     7.7068 </r>
       <r>    -5.7990    11.2184     8.3000 </r>
       <r>    -5.7461    10.4612     8.8531 </r>
       <r>    -5.6932     8.4962     9.3024 </r>
       <r>    -5.6404     6.0097     9.6201 </r>
       <r>    -5.5875     3.7023     9.8159 </r>
       <r>    -5.5346     1.9864     9.9209 </r>
       <r>    -5.4817     0.9282     9.9700 </r>
       <r>    -5.4288     0.3777     9.9900 </r>
       <r>    -5.3760     0.1339     9.9971 </r>
       <r>    -5.3231     0.0413     9.9992 </r>
       <r>    -5.2702     0.0111     9.9998 </r>
       <r>    -5.2173     0.0026    10.0000 </r>
       <r>    -5.1645     0.0005    10.0000 </r>
       <r>    -5.1116     0.0001    10.0000 </r>
       <r>    -5.0587     0.0000    10.0000 </r>
       <r>    -5.0058     0.0000    10.0000 </r>
       <r>    -4.9530     0.0000    10.0000 </r>
       <r>    -4.9001     0.0000    10.0000 </r>
       <r>    -4.8472     0.0000    10.0000 </r>
       <r>    -4.7943     0.0000    10.0000 </r>
       <r>    -4.7415     0.0000    10.0000 </r>
       <r>    -4.6886     0.0000    10.0000 </r>
       <r>    -4.6357     0.0000    10.0000 </r>
       <r>    -4.5828     0.0000    10.0000 </r>
       <r>    -4.5300     0.0000    10.0000 </r>
       <r>    -4.4771     0.0000    10.0000 </r>
       <r>    -4.4242     0.0000    10.0000 </r>
       <r>    -4.3713     0.0000    10.0000 </r>
       <r>    -4.3184     0.0000    10.0000 </r>
       <r>    -4.2656     0.0000    10.0000 </r>
       <r>    -4.2127     0.0000    10.0000 </r>
       <r>    -4.1598     0.0000    10.0000 </r>
       <r>    -4.1069     0.0000    10.0000 </r>
       <r>    -4.0541     0.0000    10.0000 </r>
       <r>    -4.0012     0.0000    10.0000 </r>
       <r>    -3.9483     0.0000    10.0000 </r>
       <r>    -3.8954     0.0000    10.0000 </r>
       <r>    -3.8426     0.0000    10.0000 </r>
       <r>    -3.7897     0.0000    10.0000 </r>
       <r>    -3.7368     0.0000    10.0000 </r>
       <r>    -3.6839     0.0000    10.0000 </r>
       <r>    -3.6311     0.0000    10.0000 </r>
       <r>    -3.5782     0.0000    10.0000 </r>
       <r>    -3.5253     0.0000    10.0000 </r>
       <r>    -3.4724     0.0000    10.0000 </r>
       <r>    -3.4196     0.0000    10.0000 </r>
       <r>    -3.3667     0.0000    10.0000 </r>
       <r>    -3.3138     0.0000    10.0000 </r>
       <r>    -3.2609     0.0000    10.0000 </r>
       <r>    -3.2080     0.0000    10.0000 </r>
       <r>    -3.1552     0.0000    10.0000 </r>
       <r>    -3.1023     0.0000    10.0000 </r>
       <r>    -3.0494     0.0000    10.0000 </r>
       <r>    -2.9965     0.0000    10.0000 </r>
       <r>    -2.9437     0.0000    10.0000 </r>
       <r>    -2.8908     0.0000    10.0000 </r>
       <r>    -2.8379     0.0000    10.0000 </r>
       <r>    -2.7850     0.0000    10.0000 </r>
       <r>    -2.7322     0.0000    10.0000 </r>
       <r>    -2.6793     0.0000    10.0000 </r>
       <r>    -2.6264     0.0000    10.0000 </r>
       <r>    -2.5735     0.0000    10.0000 </r>
       <r>    -2.5207     0.0000    10.0000 </r>
       <r>    -2.4678     0.0000    10.0000 </r>
       <r>    -2.4149     0.0000    10.0000 </r>
       <r>    -2.3620     0.0000    10.0000 </r>
       <r>    -2.3092     0.0000    10.0000 </r>
       <r>    -2.2563     0.0000    10.0000 </r>
       <r>    -2.2034     0.0000    10.0000 </r>
       <r>    -2.1505     0.0000    10.0000 </r>
       <r>    -2.0976     0.0000    10.0000 </r>
       <r>    -2.0448     0.0000    10.0000 </r>
       <r>    -1.9919     0.0000    10.0000 </r>
       <r>    -1.9390     0.0000    10.0000 </r>
       <r>    -1.8861     0.0000    10.0000 </r>
       <r>    -1.8333     0.0000    10.0000 </r>
       <r>    -1.7804     0.0000    10.0000 </r>
       <r>    -1.7275     0.0000    10.0000 </r>
       <r>    -1.6746     0.0000    10.0000 </r>
       <r>    -1.6218     0.0000    10.0000 </r>
       <r>    -1.5689     0.0000    10.0000 </r>
       <r>    -1.5160     0.0000    10.0000 </r>
       <r>    -1.4631     0.0000    10.0000 </r>
       <r>    -1.4103     0.0000    10.0000 </r>
       <r>    -1.3574     0.0000    10.0000 </r>
       <r>    -1.3045     0.0000    10.0000 </r>
       <r>    -1.2516     0.0000    10.0000 </r>
       <r>    -1.1988     0.0000    10.0000 </r>
       <r>    -1.1459     0.0000    10.0000 </r>
       <r>    -1.0930     0.0000    10.0000 </r>
       <r>    -1.0401     0.0000    10.0000 </r>
       <r>    -0.9872     0.0000    10.0000 </r>
       <r>    -0.9344     0.0000    10.0000 </r>
       <r>    -0.8815     0.0000    10.0000 </r>
       <r>    -0.8286     0.0001    10.0000 </r>
       <r>    -0.7757     0.0005    10.0000 </r>
       <r>    -0.7229     0.0027    10.0002 </r>
       <r>    -0.6700     0.0116    10.0008 </r>
       <r>    -0.6171     0.0443    10.0031 </r>
       <r>    -0.5642     0.1475    10.0109 </r>
       <r>    -0.5114     0.4280    10.0336 </r>
       <r>    -0.4585     1.0840    10.0909 </r>
       <r>    -0.4056     2.3960    10.2176 </r>
       <r>    -0.3527     4.6228    10.4620 </r>
       <r>    -0.2999     7.7869    10.8737 </r>
       <r>    -0.2470    11.4532    11.4793 </r>
       <r>    -0.1941    14.7114    12.2572 </r>
       <r>    -0.1412    16.5051    13.1300 </r>
       <r>    -0.0884    16.1761    13.9853 </r>
       <r>    -0.0355    13.8510    14.7177 </r>
       <r>     0.0174    10.3638    15.2657 </r>
       <r>     0.0703     6.7812    15.6242 </r>
       <r>     0.1232     3.8978    15.8303 </r>
       <r>     0.1760     2.0302    15.9377 </r>
       <r>     0.2289     1.1467    15.9983 </r>
       <r>     0.2818     1.1445    16.0588 </r>
       <r>     0.3347     2.0603    16.1678 </r>
       <r>     0.3875     4.0909    16.3841 </r>
       <r>     0.4404     7.4018    16.7755 </r>
       <r>     0.4933    11.8064    17.3997 </r>
       <r>     0.5462    16.5262    18.2736 </r>
       <r>     0.5990    20.2914    19.3465 </r>
       <r>     0.6519    21.8548    20.5021 </r>
       <r>     0.7048    20.6485    21.5939 </r>
       <r>     0.7577    17.1123    22.4988 </r>
       <r>     0.8105    12.4375    23.1564 </r>
       <r>     0.8634     7.9259    23.5755 </r>
       <r>     0.9163     4.4271    23.8096 </r>
       <r>     0.9692     2.1665    23.9241 </r>
       <r>     1.0221     0.9285    23.9732 </r>
       <r>     1.0749     0.3483    23.9917 </r>
       <r>     1.1278     0.1143    23.9977 </r>
       <r>     1.1807     0.0328    23.9994 </r>
       <r>     1.2336     0.0082    23.9999 </r>
       <r>     1.2864     0.0018    24.0000 </r>
       <r>     1.3393     0.0003    24.0000 </r>
       <r>     1.3922     0.0001    24.0000 </r>
       <r>     1.4451     0.0000    24.0000 </r>
       <r>     1.4979     0.0000    24.0000 </r>
       <r>     1.5508     0.0000    24.0000 </r>
       <r>     1.6037     0.0000    24.0000 </r>
       <r>     1.6566     0.0000    24.0000 </r>
       <r>     1.7094     0.0000    24.0000 </r>
       <r>     1.7623     0.0000    24.0000 </r>
       <r>     1.8152     0.0000    24.0000 </r>
       <r>     1.8681     0.0000    24.0000 </r>
       <r>     1.9209     0.0000    24.0000 </r>
       <r>     1.9738     0.0000    24.0000 </r>
       <r>     2.0267     0.0000    24.0000 </r>
       <r>     2.0796     0.0000    24.0000 </r>
       <r>     2.1325     0.0000    24.0000 </r>
       <r>     2.1853     0.0000    24.0000 </r>
       <r>     2.2382     0.0000    24.0000 </r>
       <r>     2.2911     0.0000    24.0000 </r>
       <r>     2.3440     0.0000    24.0000 </r>
       <r>     2.3968     0.0000    24.0000 </r>
       <r>     2.4497     0.0000    24.0000 </r>
       <r>     2.5026     0.0000    24.0000 </r>
       <r>     2.5555     0.0000    24.0000 </r>
       <r>     2.6083     0.0000    24.0000 </r>
       <r>     2.6612     0.0000    24.0000 </r>
      </set>
     </set>
    </array>
   </total>
  </dos>
 </calculation>
 <structure name="finalpos" >
  <crystal>
   <varray name="basis" >
    <v>      15.00000000       0.00000000       0.00000000 </v>
    <v>       0.00000000      15.00000000       0.00000000 </v>
    <v>       0.00000000       0.00000000      10.40000000 </v>
   </varray>
   <i name="volume">   2340.00000000 </i>
   <varray name="rec_basis" >
    <v>       0.06666667      -0.00000000       0.00000000 </v>
    <v>       0.00000000       0.06666667       0.00000000 </v>
    <v>      -0.00000000      -0.00000000       0.09615385 </v>
   </varray>
  </crystal>
  <varray name="positions" >
   <v>       0.00000000       0.00000000       0.00000000 </v>
   <v>       0.00000000       0.00000000       0.12500000 </v>
   <v>       0.00000000       0.00000000       0.25000000 </v>
   <v>       0.00000000       0.00000000       0.37500000 </v>
   <v>       0.00000000       0.00000000       0.50000000 </v>
   <v>       0.00000000       0.00000000       0.62500000 </v>
   <v>       0.00000000       0.00000000       0.75000000 </v>
   <v>       0.00000000       0.00000000       0.87500000 </v>
  </varray>
 </structure>
</modeling>
