   8   8   0   0
  0.1350000E+03  0.1500000E-08  0.1500000E-08  0.4800000E-09  0.5000000E-15
  1.000000000000000E-004
  CAR 
 unknown system                          
      2.35022281    -30.61403877  301     -3.39732905      1.00000000
    -30.614  0.0000E+00  0.0000E+00  0.0000E+00  0.0000E+00
    -30.504  0.0000E+00  0.0000E+00  0.0000E+00  0.0000E+00
    -30.394  0.0000E+00  0.0000E+00  0.0000E+00  0.0000E+00
    -30.284  0.0000E+00  0.0000E+00  0.0000E+00  0.0000E+00
    -30.175  0.0000E+00  0.0000E+00  0.0000E+00  0.0000E+00
    -30.065  0.0000E+00  0.0000E+00  0.0000E+00  0.0000E+00
    -29.955  0.0000E+00  0.0000E+00  0.0000E+00  0.0000E+00
    -29.845  0.0000E+00  0.0000E+00  0.0000E+00  0.0000E+00
    -29.735  0.2021E-13  0.2021E-13  0.2220E-14  0.2220E-14
    -29.625  0.7914E-11  0.7913E-11  0.8719E-12  0.8717E-12
    -29.515  0.1686E-08  0.1686E-08  0.1861E-09  0.1861E-09
    -29.405  0.1986E-06  0.1986E-06  0.2201E-07  0.2201E-07
    -29.295  0.1297E-04  0.1297E-04  0.1447E-05  0.1447E-05
    -29.186  0.4703E-03  0.4702E-03  0.5312E-04  0.5312E-04
    -29.076  0.9497E-02  0.9496E-02  0.1097E-02  0.1097E-02
    -28.966  0.1071E+00  0.1071E+00  0.1286E-01  0.1286E-01
    -28.856  0.6762E+00  0.6762E+00  0.8717E-01  0.8716E-01
    -28.746  0.2397E+01  0.2397E+01  0.3505E+00  0.3505E+00
    -28.636  0.4778E+01  0.4778E+01  0.8756E+00  0.8756E+00
    -28.526  0.5364E+01  0.5364E+01  0.1465E+01  0.1465E+01
    -28.416  0.3392E+01  0.3392E+01  0.1838E+01  0.1838E+01
    -28.307  0.1207E+01  0.1207E+01  0.1970E+01  0.1970E+01
    -28.197  0.2413E+00  0.2413E+00  0.1997E+01  0.1997E+01
    -28.087  0.2704E-01  0.2704E-01  0.2000E+01  0.2000E+01
    -27.977  0.1694E-02  0.1694E-02  0.2000E+01  0.2000E+01
    -27.867  0.5917E-04  0.5917E-04  0.2000E+01  0.2000E+01
    -27.757  0.1149E-05  0.1149E-05  0.2000E+01  0.2000E+01
    -27.647  0.1237E-07  0.1238E-07  0.2000E+01  0.2000E+01
    -27.537  0.7377E-10  0.7378E-10  0.2000E+01  0.2000E+01
    -27.427  0.2425E-12  0.2425E-12  0.2000E+01  0.2000E+01
    -27.318  0.0000E+00  0.0000E+00  0.2000E+01  0.2000E+01
    -27.208  0.0000E+00  0.0000E+00  0.2000E+01  0.2000E+01
    -27.098  0.0000E+00  0.0000E+00  0.2000E+01  0.2000E+01
    -26.988  0.0000E+00  0.0000E+00  0.2000E+01  0.2000E+01
    -26.878  0.0000E+00  0.0000E+00  0.2000E+01  0.2000E+01
    -26.768  0.0000E+00  0.0000E+00  0.2000E+01  0.2000E+01
    -26.658  0.0000E+00  0.0000E+00  0.2000E+01  0.2000E+01
    -26.548  0.0000E+00  0.0000E+00  0.2000E+01  0.2000E+01
    -26.439  0.0000E+00  0.0000E+00  0.2000E+01  0.2000E+01
    -26.329  0.0000E+00  0.0000E+00  0.2000E+01  0.2000E+01
    -26.219  0.0000E+00  0.0000E+00  0.2000E+01  0.2000E+01
    -26.109  0.0000E+00  0.0000E+00  0.2000E+01  0.2000E+01
    -25.999  0.0000E+00  0.0000E+00  0.2000E+01  0.2000E+01
    -25.889  0.0000E+00  0.0000E+00  0.2000E+01  0.2000E+01
    -25.779  0.0000E+00  0.0000E+00  0.2000E+01  0.2000E+01
    -25.669  0.0000E+00  0.0000E+00  0.2000E+01  0.2000E+01
    -25.560  0.0000E+00  0.0000E+00  0.2000E+01  0.2000E+01
    -25.450  0.0000E+00  0.0000E+00  0.2000E+01  0.2000E+01
    -25.340  0.0000E+00  0.0000E+00  0.2000E+01  0.2000E+01
    -25.230  0.0000E+00  0.0000E+00  0.2000E+01  0.2000E+01
    -25.120  0.0000E+00  0.0000E+00  0.2000E+01  0.2000E+01
    -25.010  0.0000E+00  0.0000E+00  0.2000E+01  0.2000E+01
    -24.900  0.0000E+00  0.0000E+00  0.2000E+01  0.2000E+01
    -24.790  0.0000E+00  0.0000E+00  0.2000E+01  0.2000E+01
    -24.680  0.0000E+00  0.0000E+00  0.2000E+01  0.2000E+01
    -24.571  0.0000E+00  0.0000E+00  0.2000E+01  0.2000E+01
    -24.461  0.0000E+00  0.0000E+00  0.2000E+01  0.2000E+01
    -24.351  0.0000E+00  0.0000E+00  0.2000E+01  0.2000E+01
    -24.241  0.0000E+00  0.0000E+00  0.2000E+01  0.2000E+01
    -24.131  0.0000E+00  0.0000E+00  0.2000E+01  0.2000E+01
    -24.021  0.0000E+00  0.0000E+00  0.2000E+01  0.2000E+01
    -23.911  0.0000E+00  0.0000E+00  0.2000E+01  0.2000E+01
    -23.801  0.0000E+00  0.0000E+00  0.2000E+01  0.2000E+01
    -23.692  0.0000E+00  0.0000E+00  0.2000E+01  0.2000E+01
    -23.582  0.0000E+00  0.0000E+00  0.2000E+01  0.2000E+01
    -23.472  0.0000E+00  0.0000E+00  0.2000E+01  0.2000E+01
    -23.362  0.0000E+00  0.0000E+00  0.2000E+01  0.2000E+01
    -23.252  0.8083E-14  0.8083E-14  0.2000E+01  0.2000E+01
    -23.142  0.3395E-11  0.3393E-11  0.2000E+01  0.2000E+01
    -23.032  0.8480E-09  0.8479E-09  0.2000E+01  0.2000E+01
    -22.922  0.1171E-06  0.1171E-06  0.2000E+01  0.2000E+01
    -22.812  0.8955E-05  0.8954E-05  0.2000E+01  0.2000E+01
    -22.703  0.3801E-03  0.3801E-03  0.2000E+01  0.2000E+01
    -22.593  0.8980E-02  0.8980E-02  0.2001E+01  0.2001E+01
    -22.483  0.1184E+00  0.1184E+00  0.2014E+01  0.2014E+01
    -22.373  0.8730E+00  0.8730E+00  0.2110E+01  0.2110E+01
    -22.263  0.3612E+01  0.3612E+01  0.2507E+01  0.2507E+01
    -22.153  0.8402E+01  0.8402E+01  0.3430E+01  0.3430E+01
    -22.043  0.1100E+02  0.1100E+02  0.4639E+01  0.4639E+01
    -21.933  0.8116E+01  0.8116E+01  0.5531E+01  0.5531E+01
    -21.824  0.3370E+01  0.3370E+01  0.5901E+01  0.5901E+01
    -21.714  0.7867E+00  0.7867E+00  0.5988E+01  0.5988E+01
    -21.604  0.1030E+00  0.1030E+00  0.5999E+01  0.5999E+01
    -21.494  0.7545E-02  0.7545E-02  0.6000E+01  0.6000E+01
    -21.384  0.3083E-03  0.3083E-03  0.6000E+01  0.6000E+01
    -21.274  0.7010E-05  0.7010E-05  0.6000E+01  0.6000E+01
    -21.164  0.8845E-07  0.8846E-07  0.6000E+01  0.6000E+01
    -21.054  0.6181E-09  0.6182E-09  0.6000E+01  0.6000E+01
    -20.945  0.2385E-11  0.2385E-11  0.6000E+01  0.6000E+01
    -20.835  0.8083E-14  0.8083E-14  0.6000E+01  0.6000E+01
    -20.725  0.0000E+00  0.0000E+00  0.6000E+01  0.6000E+01
    -20.615  0.0000E+00  0.0000E+00  0.6000E+01  0.6000E+01
    -20.505  0.0000E+00  0.0000E+00  0.6000E+01  0.6000E+01
    -20.395  0.0000E+00  0.0000E+00  0.6000E+01  0.6000E+01
    -20.285  0.0000E+00  0.0000E+00  0.6000E+01  0.6000E+01
    -20.175  0.0000E+00  0.0000E+00  0.6000E+01  0.6000E+01
    -20.065  0.0000E+00  0.0000E+00  0.6000E+01  0.6000E+01
    -19.956  0.0000E+00  0.0000E+00  0.6000E+01  0.6000E+01
    -19.846  0.0000E+00  0.0000E+00  0.6000E+01  0.6000E+01
    -19.736  0.0000E+00  0.0000E+00  0.6000E+01  0.6000E+01
    -19.626  0.0000E+00  0.0000E+00  0.6000E+01  0.6000E+01
    -19.516  0.0000E+00  0.0000E+00  0.6000E+01  0.6000E+01
    -19.406  0.0000E+00  0.0000E+00  0.6000E+01  0.6000E+01
    -19.296  0.0000E+00  0.0000E+00  0.6000E+01  0.6000E+01
    -19.186  0.0000E+00  0.0000E+00  0.6000E+01  0.6000E+01
    -19.077  0.0000E+00  0.0000E+00  0.6000E+01  0.6000E+01
    -18.967  0.0000E+00  0.0000E+00  0.6000E+01  0.6000E+01
    -18.857  0.0000E+00  0.0000E+00  0.6000E+01  0.6000E+01
    -18.747  0.0000E+00  0.0000E+00  0.6000E+01  0.6000E+01
    -18.637  0.0000E+00  0.0000E+00  0.6000E+01  0.6000E+01
    -18.527  0.0000E+00  0.0000E+00  0.6000E+01  0.6000E+01
    -18.417  0.0000E+00  0.0000E+00  0.6000E+01  0.6000E+01
    -18.307  0.0000E+00  0.0000E+00  0.6000E+01  0.6000E+01
    -18.198  0.0000E+00  0.0000E+00  0.6000E+01  0.6000E+01
    -18.088  0.0000E+00  0.0000E+00  0.6000E+01  0.6000E+01
    -17.978  0.0000E+00  0.0000E+00  0.6000E+01  0.6000E+01
    -17.868  0.0000E+00  0.0000E+00  0.6000E+01  0.6000E+01
    -17.758  0.0000E+00  0.0000E+00  0.6000E+01  0.6000E+01
    -17.648  0.0000E+00  0.0000E+00  0.6000E+01  0.6000E+01
    -17.538  0.0000E+00  0.0000E+00  0.6000E+01  0.6000E+01
    -17.428  0.0000E+00  0.0000E+00  0.6000E+01  0.6000E+01
    -17.318  0.0000E+00  0.0000E+00  0.6000E+01  0.6000E+01
    -17.209  0.0000E+00  0.0000E+00  0.6000E+01  0.6000E+01
    -17.099  0.0000E+00  0.0000E+00  0.6000E+01  0.6000E+01
    -16.989  0.0000E+00  0.0000E+00  0.6000E+01  0.6000E+01
    -16.879  0.0000E+00  0.0000E+00  0.6000E+01  0.6000E+01
    -16.769  0.0000E+00  0.0000E+00  0.6000E+01  0.6000E+01
    -16.659  0.0000E+00  0.0000E+00  0.6000E+01  0.6000E+01
    -16.549  0.0000E+00  0.0000E+00  0.6000E+01  0.6000E+01
    -16.439  0.0000E+00  0.0000E+00  0.6000E+01  0.6000E+01
    -16.330  0.0000E+00  0.0000E+00  0.6000E+01  0.6000E+01
    -16.220  0.0000E+00  0.0000E+00  0.6000E+01  0.6000E+01
    -16.110  0.0000E+00  0.0000E+00  0.6000E+01  0.6000E+01
    -16.000  0.0000E+00  0.0000E+00  0.6000E+01  0.6000E+01
    -15.890  0.0000E+00  0.0000E+00  0.6000E+01  0.6000E+01
    -15.780  0.0000E+00  0.0000E+00  0.6000E+01  0.6000E+01
    -15.670  0.0000E+00  0.0000E+00  0.6000E+01  0.6000E+01
    -15.560  0.0000E+00  0.0000E+00  0.6000E+01  0.6000E+01
    -15.450  0.0000E+00  0.0000E+00  0.6000E+01  0.6000E+01
    -15.341  0.0000E+00  0.0000E+00  0.6000E+01  0.6000E+01
    -15.231  0.0000E+00  0.0000E+00  0.6000E+01  0.6000E+01
    -15.121  0.0000E+00  0.0000E+00  0.6000E+01  0.6000E+01
    -15.011  0.0000E+00  0.0000E+00  0.6000E+01  0.6000E+01
    -14.901  0.0000E+00  0.0000E+00  0.6000E+01  0.6000E+01
    -14.791  0.0000E+00  0.0000E+00  0.6000E+01  0.6000E+01
    -14.681  0.0000E+00  0.0000E+00  0.6000E+01  0.6000E+01
    -14.571  0.0000E+00  0.0000E+00  0.6000E+01  0.6000E+01
    -14.462  0.0000E+00  0.0000E+00  0.6000E+01  0.6000E+01
    -14.352  0.0000E+00  0.0000E+00  0.6000E+01  0.6000E+01
    -14.242  0.0000E+00  0.0000E+00  0.6000E+01  0.6000E+01
    -14.132  0.0000E+00  0.0000E+00  0.6000E+01  0.6000E+01
    -14.022  0.0000E+00  0.0000E+00  0.6000E+01  0.6000E+01
    -13.912  0.0000E+00  0.0000E+00  0.6000E+01  0.6000E+01
    -13.802  0.0000E+00  0.0000E+00  0.6000E+01  0.6000E+01
    -13.692  0.0000E+00  0.0000E+00  0.6000E+01  0.6000E+01
    -13.583  0.0000E+00  0.0000E+00  0.6000E+01  0.6000E+01
    -13.473  0.0000E+00  0.0000E+00  0.6000E+01  0.6000E+01
    -13.363  0.0000E+00  0.0000E+00  0.6000E+01  0.6000E+01
    -13.253  0.0000E+00  0.0000E+00  0.6000E+01  0.6000E+01
    -13.143  0.0000E+00  0.0000E+00  0.6000E+01  0.6000E+01
    -13.033  0.0000E+00  0.0000E+00  0.6000E+01  0.6000E+01
    -12.923  0.0000E+00  0.0000E+00  0.6000E+01  0.6000E+01
    -12.813  0.0000E+00  0.0000E+00  0.6000E+01  0.6000E+01
    -12.703  0.0000E+00  0.0000E+00  0.6000E+01  0.6000E+01
    -12.594  0.0000E+00  0.0000E+00  0.6000E+01  0.6000E+01
    -12.484  0.0000E+00  0.0000E+00  0.6000E+01  0.6000E+01
    -12.374  0.0000E+00  0.0000E+00  0.6000E+01  0.6000E+01
    -12.264  0.0000E+00  0.0000E+00  0.6000E+01  0.6000E+01
    -12.154  0.0000E+00  0.0000E+00  0.6000E+01  0.6000E+01
    -12.044  0.0000E+00  0.0000E+00  0.6000E+01  0.6000E+01
    -11.934  0.0000E+00  0.0000E+00  0.6000E+01  0.6000E+01
    -11.824  0.0000E+00  0.0000E+00  0.6000E+01  0.6000E+01
    -11.715  0.0000E+00  0.0000E+00  0.6000E+01  0.6000E+01
    -11.605  0.0000E+00  0.0000E+00  0.6000E+01  0.6000E+01
    -11.495  0.0000E+00  0.0000E+00  0.6000E+01  0.6000E+01
    -11.385  0.0000E+00  0.0000E+00  0.6000E+01  0.6000E+01
    -11.275  0.0000E+00  0.0000E+00  0.6000E+01  0.6000E+01
    -11.165  0.0000E+00  0.0000E+00  0.6000E+01  0.6000E+01
    -11.055  0.0000E+00  0.0000E+00  0.6000E+01  0.6000E+01
    -10.945  0.0000E+00  0.0000E+00  0.6000E+01  0.6000E+01
    -10.835  0.0000E+00  0.0000E+00  0.6000E+01  0.6000E+01
    -10.726  0.0000E+00  0.0000E+00  0.6000E+01  0.6000E+01
    -10.616  0.0000E+00  0.0000E+00  0.6000E+01  0.6000E+01
    -10.506  0.0000E+00  0.0000E+00  0.6000E+01  0.6000E+01
    -10.396  0.0000E+00  0.0000E+00  0.6000E+01  0.6000E+01
    -10.286  0.0000E+00  0.0000E+00  0.6000E+01  0.6000E+01
    -10.176  0.0000E+00  0.0000E+00  0.6000E+01  0.6000E+01
    -10.066  0.0000E+00  0.0000E+00  0.6000E+01  0.6000E+01
     -9.956  0.0000E+00  0.0000E+00  0.6000E+01  0.6000E+01
     -9.847  0.0000E+00  0.0000E+00  0.6000E+01  0.6000E+01
     -9.737  0.0000E+00  0.0000E+00  0.6000E+01  0.6000E+01
     -9.627  0.0000E+00  0.0000E+00  0.6000E+01  0.6000E+01
     -9.517  0.0000E+00  0.0000E+00  0.6000E+01  0.6000E+01
     -9.407  0.0000E+00  0.0000E+00  0.6000E+01  0.6000E+01
     -9.297  0.0000E+00  0.0000E+00  0.6000E+01  0.6000E+01
     -9.187  0.0000E+00  0.0000E+00  0.6000E+01  0.6000E+01
     -9.077  0.0000E+00  0.0000E+00  0.6000E+01  0.6000E+01
     -8.968  0.0000E+00  0.0000E+00  0.6000E+01  0.6000E+01
     -8.858  0.0000E+00  0.0000E+00  0.6000E+01  0.6000E+01
     -8.748  0.0000E+00  0.0000E+00  0.6000E+01  0.6000E+01
     -8.638  0.0000E+00  0.0000E+00  0.6000E+01  0.6000E+01
     -8.528  0.0000E+00  0.0000E+00  0.6000E+01  0.6000E+01
     -8.418  0.0000E+00  0.0000E+00  0.6000E+01  0.6000E+01
     -8.308  0.0000E+00  0.0000E+00  0.6000E+01  0.6000E+01
     -8.198  0.0000E+00  0.0000E+00  0.6000E+01  0.6000E+01
     -8.088  0.0000E+00  0.0000E+00  0.6000E+01  0.6000E+01
     -7.979  0.0000E+00  0.0000E+00  0.6000E+01  0.6000E+01
     -7.869  0.0000E+00  0.0000E+00  0.6000E+01  0.6000E+01
     -7.759  0.0000E+00  0.0000E+00  0.6000E+01  0.6000E+01
     -7.649  0.0000E+00  0.0000E+00  0.6000E+01  0.6000E+01
     -7.539  0.0000E+00  0.0000E+00  0.6000E+01  0.6000E+01
     -7.429  0.0000E+00  0.0000E+00  0.6000E+01  0.6000E+01
     -7.319  0.0000E+00  0.0000E+00  0.6000E+01  0.6000E+01
     -7.209  0.0000E+00  0.0000E+00  0.6000E+01  0.6000E+01
     -7.100  0.0000E+00  0.0000E+00  0.6000E+01  0.6000E+01
     -6.990  0.0000E+00  0.0000E+00  0.6000E+01  0.6000E+01
     -6.880  0.0000E+00  0.0000E+00  0.6000E+01  0.6000E+01
     -6.770  0.0000E+00  0.0000E+00  0.6000E+01  0.6000E+01
     -6.660  0.0000E+00  0.0000E+00  0.6000E+01  0.6000E+01
     -6.550  0.0000E+00  0.0000E+00  0.6000E+01  0.6000E+01
     -6.440  0.0000E+00  0.0000E+00  0.6000E+01  0.6000E+01
     -6.330  0.0000E+00  0.0000E+00  0.6000E+01  0.6000E+01
     -6.220  0.0000E+00  0.0000E+00  0.6000E+01  0.6000E+01
     -6.111  0.0000E+00  0.0000E+00  0.6000E+01  0.6000E+01
     -6.001  0.0000E+00  0.0000E+00  0.6000E+01  0.6000E+01
     -5.891  0.0000E+00  0.0000E+00  0.6000E+01  0.6000E+01
     -5.781  0.0000E+00  0.0000E+00  0.6000E+01  0.6000E+01
     -5.671  0.0000E+00  0.0000E+00  0.6000E+01  0.6000E+01
     -5.561  0.0000E+00  0.0000E+00  0.6000E+01  0.6000E+01
     -5.451  0.0000E+00  0.0000E+00  0.6000E+01  0.6000E+01
     -5.341  0.0000E+00  0.0000E+00  0.6000E+01  0.6000E+01
     -5.232  0.0000E+00  0.0000E+00  0.6000E+01  0.6000E+01
     -5.122  0.0000E+00  0.0000E+00  0.6000E+01  0.6000E+01
     -5.012  0.0000E+00  0.0000E+00  0.6000E+01  0.6000E+01
     -4.902  0.0000E+00  0.0000E+00  0.6000E+01  0.6000E+01
     -4.792  0.0000E+00  0.0000E+00  0.6000E+01  0.6000E+01
     -4.682  0.0000E+00  0.0000E+00  0.6000E+01  0.6000E+01
     -4.572  0.2021E-14  0.2021E-14  0.6000E+01  0.6000E+01
     -4.462  0.9134E-12  0.9134E-12  0.6000E+01  0.6000E+01
     -4.353  0.2606E-09  0.2606E-09  0.6000E+01  0.6000E+01
     -4.243  0.4106E-07  0.4106E-07  0.6000E+01  0.6000E+01
     -4.133  0.3582E-05  0.3582E-05  0.6000E+01  0.6000E+01
     -4.023  0.1734E-03  0.1734E-03  0.6000E+01  0.6000E+01
     -3.913  0.4666E-02  0.4666E-02  0.6001E+01  0.6001E+01
     -3.803  0.7004E-01  0.7004E-01  0.6008E+01  0.6008E+01
     -3.693  0.5879E+00  0.5879E+00  0.6073E+01  0.6073E+01
     -3.583  0.2766E+01  0.2766E+01  0.6377E+01  0.6377E+01
     -3.473  0.7316E+01  0.7316E+01  0.7181E+01  0.7181E+01
     -3.364  0.1089E+02  0.1089E+02  0.8377E+01  0.8377E+01
     -3.254  0.9129E+01  0.9129E+01  0.9380E+01  0.9380E+01
     -3.144  0.4310E+01  0.4310E+01  0.9854E+01  0.9854E+01
     -3.034  0.1158E+01  0.1158E+01  0.9981E+01  0.9981E+01
     -2.924  0.3417E+00  0.3417E+00  0.1002E+02  0.1002E+02
     -2.814  0.1162E+01  0.1162E+01  0.1015E+02  0.1015E+02
     -2.704  0.4321E+01  0.4321E+01  0.1062E+02  0.1062E+02
     -2.594  0.9159E+01  0.9159E+01  0.1163E+02  0.1163E+02
     -2.485  0.1108E+02  0.1108E+02  0.1285E+02  0.1285E+02
     -2.375  0.8346E+01  0.8347E+01  0.1376E+02  0.1376E+02
     -2.265  0.5874E+01  0.5875E+01  0.1441E+02  0.1441E+02
     -2.155  0.5832E+01  0.5832E+01  0.1505E+02  0.1505E+02
     -2.045  0.5046E+01  0.5046E+01  0.1560E+02  0.1560E+02
     -1.935  0.2663E+01  0.2662E+01  0.1590E+02  0.1590E+02
     -1.825  0.7992E+00  0.7987E+00  0.1598E+02  0.1598E+02
     -1.715  0.1348E+00  0.1347E+00  0.1600E+02  0.1600E+02
     -1.605  0.1274E-01  0.1273E-01  0.1600E+02  0.1600E+02
     -1.496  0.6726E-03  0.6719E-03  0.1600E+02  0.1600E+02
     -1.386  0.1978E-04  0.1975E-04  0.1600E+02  0.1600E+02
     -1.276  0.3232E-06  0.3227E-06  0.1600E+02  0.1600E+02
     -1.166  0.2927E-08  0.2921E-08  0.1600E+02  0.1600E+02
     -1.056  0.1466E-10  0.1463E-10  0.1600E+02  0.1600E+02
     -0.946  0.1081E-12  0.1293E-12  0.1600E+02  0.1600E+02
     -0.836  0.2388E-10  0.3057E-10  0.1600E+02  0.1600E+02
     -0.726  0.4684E-08  0.5844E-08  0.1600E+02  0.1600E+02
     -0.617  0.5113E-06  0.6217E-06  0.1600E+02  0.1600E+02
     -0.507  0.3116E-04  0.3693E-04  0.1600E+02  0.1600E+02
     -0.397  0.1065E-02  0.1230E-02  0.1600E+02  0.1600E+02
     -0.287  0.2050E-01  0.2308E-01  0.1600E+02  0.1600E+02
     -0.177  0.2241E+00  0.2458E+00  0.1603E+02  0.1603E+02
     -0.067  0.1408E+01  0.1505E+01  0.1618E+02  0.1620E+02
      0.043  0.5205E+01  0.5418E+01  0.1675E+02  0.1679E+02
      0.153  0.1180E+02  0.1199E+02  0.1805E+02  0.1811E+02
      0.262  0.1743E+02  0.1738E+02  0.1997E+02  0.2002E+02
      0.372  0.1763E+02  0.1741E+02  0.2190E+02  0.2193E+02
      0.482  0.1211E+02  0.1194E+02  0.2323E+02  0.2324E+02
      0.592  0.5330E+01  0.5258E+01  0.2382E+02  0.2382E+02
      0.702  0.1416E+01  0.1397E+01  0.2397E+02  0.2397E+02
      0.812  0.2185E+00  0.2152E+00  0.2400E+02  0.2400E+02
      0.922  0.1916E-01  0.1882E-01  0.2400E+02  0.2400E+02
      1.032  0.9440E-03  0.9249E-03  0.2400E+02  0.2400E+02
      1.142  0.2598E-04  0.2537E-04  0.2400E+02  0.2400E+02
      1.251  0.3975E-06  0.3869E-06  0.2400E+02  0.2400E+02
      1.361  0.3373E-08  0.3271E-08  0.2400E+02  0.2400E+02
      1.471  0.1583E-10  0.1529E-10  0.2400E+02  0.2400E+02
      1.581  0.4042E-13  0.4042E-13  0.2400E+02  0.2400E+02
      1.691  0.0000E+00  0.0000E+00  0.2400E+02  0.2400E+02
      1.801  0.0000E+00  0.0000E+00  0.2400E+02  0.2400E+02
      1.911  0.0000E+00  0.0000E+00  0.2400E+02  0.2400E+02
      2.021  0.0000E+00  0.0000E+00  0.2400E+02  0.2400E+02
      2.130  0.0000E+00  0.0000E+00  0.2400E+02  0.2400E+02
      2.240  0.0000E+00  0.0000E+00  0.2400E+02  0.2400E+02
      2.350  0.0000E+00  0.0000E+00  0.2400E+02  0.2400E+02
