    8    8    1    2
  0.1350000E+03  0.1500000E-08  0.1500000E-08  0.4800000E-09  0.5000000E-15
  1.000000000000000E-004
  CAR 
 unknown system                          
      8      1     12
 
  0.0000000E+00  0.0000000E+00  0.0000000E+00  0.1000000E+01
    1      -28.614039    -28.614037   1.000000   1.000000
    2      -22.101585    -22.101583   1.000000   1.000000
    3      -22.101585    -22.101583   1.000000   1.000000
    4       -3.397329     -3.397329   0.500000   0.500000
    5       -3.397329     -3.397329   0.500000   0.500000
    6       -2.560914     -2.560912   0.000000   0.000000
    7       -2.560875     -2.560873   0.000000   0.000000
    8       -2.164994     -2.165032   0.000000   0.000000
    9        0.154946      0.150081   0.000000   0.000000
   10        0.199777      0.194714   0.000000   0.000000
   11        0.350223      0.349560   0.000000   0.000000
   12        0.350223      0.349560   0.000000   0.000000
