       N       E                     dE             d eps       ncg     rms          rms(c)
DAV:   1     0.233314004175E+02    0.23331E+02   -0.14888E+03    64   0.172E+02
DAV:   2    -0.399589571701E+00   -0.23731E+02   -0.23622E+02    52   0.789E+01
DAV:   3    -0.268908163650E+01   -0.22895E+01   -0.20687E+01    96   0.174E+01
DAV:   4    -0.285053941608E+01   -0.16146E+00   -0.15427E+00    56   0.291E+00
DAV:   5    -0.303902883564E+01   -0.18849E+00   -0.28706E-01    64   0.523E-01    0.148E+01
DAV:   6    -0.115211178912E+01    0.18869E+01   -0.39953E+01    48   0.734E+00    0.266E+00
DAV:   7    -0.108531363963E+01    0.66798E-01   -0.12424E-01    48   0.140E+00    0.166E+00
DAV:   8    -0.972082247730E+00    0.11323E+00   -0.38197E-01    48   0.231E+00    0.235E-01
DAV:   9    -0.973749219378E+00   -0.16670E-02   -0.20470E-02    56   0.404E-01    0.231E-01
DAV:  10    -0.986575730468E+00   -0.12827E-01   -0.16461E-02    48   0.518E-01    0.285E-01
DAV:  11    -0.995383754977E+00   -0.88080E-02   -0.13235E-02    48   0.502E-01    0.371E-01
DAV:  12    -0.995476522334E+00   -0.92767E-04   -0.24443E-04    64   0.668E-02    0.379E-01
DAV:  13    -0.997448150713E+00   -0.19716E-02   -0.20762E-04    56   0.512E-02    0.396E-01
DAV:  14    -0.986806138642E+00    0.10642E-01   -0.10748E-02    56   0.390E-01    0.265E-01
DAV:  15    -0.982436624314E+00    0.43695E-02   -0.93047E-03    52   0.331E-01    0.155E-01
DAV:  16    -0.981022308573E+00    0.14143E-02   -0.47518E-02    48   0.774E-01    0.124E-01
DAV:  17    -0.981580489013E+00   -0.55818E-03   -0.19080E-03    48   0.135E-01    0.128E-01
DAV:  18    -0.980052729802E+00    0.15278E-02   -0.24602E-03    48   0.211E-01    0.534E-02
DAV:  19    -0.979664619583E+00    0.38811E-03   -0.27637E-03    52   0.197E-01    0.178E-02
DAV:  20    -0.979720196481E+00   -0.55577E-04   -0.11228E-04    48   0.390E-02    0.197E-02
DAV:  21    -0.979694999838E+00    0.25197E-04   -0.44862E-05    48   0.330E-02    0.979E-03
DAV:  22    -0.979685938836E+00    0.90610E-05   -0.35740E-05    48   0.235E-02    0.186E-03
DAV:  23    -0.979689003298E+00   -0.30645E-05   -0.19364E-06    48   0.465E-03    0.129E-03
DAV:  24    -0.979689512454E+00   -0.50916E-06   -0.57385E-07    52   0.291E-03
   1 F= -.97968951E+00 E0= -.86685159E+00  d E =-.225676E+00  mag=    -0.0000
