 vasp.5.4.4.18Apr17-6-g9f103f2a35 (build Aug 24 2024 05:40:03) complex          
  
 executed on           IFC22_IMPI date 2024.11.22  21:38:05
 running on    4 total cores
 distrk:  each k-point on    4 cores,    1 groups
 distr:  one band on NCORES_PER_BAND=   1 cores,    4 groups


--------------------------------------------------------------------------------------------------------


 INCAR:
 POTCAR:    PAW_PBE H 15Jun2001                   
 POTCAR:    PAW_PBE H 15Jun2001                   
   VRHFIN =H: ultrasoft test                                                    
   LEXCH  = PE                                                                  
   EATOM  =    12.4884 eV,    0.9179 Ry                                         
                                                                                
   TITEL  = PAW_PBE H 15Jun2001                                                 
   LULTRA =        F    use ultrasoft PP ?                                      
   IUNSCR =        0    unscreen: 0-lin 1-nonlin 2-no                           
   RPACOR =    0.000    partial core radius                                     
   POMASS =    1.000; ZVAL   =    1.000    mass and valenz                      
   RCORE  =    1.100    outmost cutoff radius                                   
   RWIGS  =    0.700; RWIGS  =    0.370    wigner-seitz radius (au A)           
   ENMAX  =  250.000; ENMIN  =  200.000 eV                                      
   RCLOC  =    0.701    cutoff for local pot                                    
   LCOR   =        T    correct aug charges                                     
   LPAW   =        T    paw PP                                                  
   EAUG   =  400.000                                                            
   RMAX   =    1.123    core radius for proj-oper                               
   RAUG   =    1.200    factor for augmentation sphere                          
   RDEP   =    1.112    radius for radial grids                                 
   RDEPT  =    0.926    core radius for aug-charge                              
                                                                                
   Atomic configuration                                                         
    2 entries                                                                   
     n  l   j            E        occ.                                          
     1  0  0.50        -6.4927   1.0000                                         
     2  1  0.50        -3.4015   0.0000                                         
   Description                                                                  
     l       E           TYP  RCUT    TYP  RCUT                                 
     0     -6.4927494     23  1.100                                             
     0      6.8029130     23  1.100                                             
     1     -4.0817478     23  1.100                                             
  local pseudopotential read in
  atomic valenz-charges read in
  non local Contribution for L=           0  read in
    real space projection operators read in
  non local Contribution for L=           0  read in
    real space projection operators read in
  non local Contribution for L=           1  read in
    real space projection operators read in
    PAW grid and wavefunctions read in
 
   number of l-projection  operators is LMAX  =           3
   number of lm-projection operators is LMMAX =           5
 
  PAW_PBE H 15Jun2001                   :
 energy of atom  1       EATOM=  -12.4884
 kinetic energy error for atom=    0.0426 (will be added to EATOM!!)
 
 
 POSCAR: H8                                      
  positions in direct lattice
  No initial velocities read in
 exchange correlation table for  LEXCH =        8
   RHO(1)=    0.500       N(1)  =     2000
   RHO(2)=  100.500       N(2)  =     4000
 


--------------------------------------------------------------------------------------------------------


 ion  position               nearest neighbor table
   1  0.000  0.000  0.000-   2 0.60   8 0.60
   2  0.000  0.000  0.125-   1 0.60   3 0.60
   3  0.000  0.000  0.250-   2 0.60   4 0.60
   4  0.000  0.000  0.375-   3 0.60   5 0.60
   5  0.000  0.000  0.500-   4 0.60   6 0.60
   6  0.000  0.000  0.625-   5 0.60   7 0.60
   7  0.000  0.000  0.750-   6 0.60   8 0.60
   8  0.000  0.000  0.875-   1 0.60   7 0.60
 
  LATTYP: Found a simple tetragonal cell.
 ALAT       =    15.0000000000
 C/A-ratio  =     0.3200000000
  
  Lattice vectors:
  
 A1 = (  15.0000000000,   0.0000000000,   0.0000000000)
 A2 = (   0.0000000000,  15.0000000000,   0.0000000000)
 A3 = (   0.0000000000,   0.0000000000,   4.8000000000)


Analysis of symmetry for initial positions (statically):
=====================================================================
 Subroutine PRICEL returns following result:
 
  LATTYP: Found a simple tetragonal cell.
 ALAT       =    15.0000000000
 C/A-ratio  =     0.0400000000
  
  Lattice vectors:
  
 A1 = (  15.0000000000,   0.0000000000,   0.0000000000)
 A2 = (   0.0000000000,  15.0000000000,   0.0000000000)
 A3 = (   0.0000000000,   0.0000000000,   0.6000000000)
 
   8 primitive cells build up your supercell.
 

 Routine SETGRP: Setting up the symmetry group for a 
 simple tetragonal supercell.


 Subroutine GETGRP returns: Found 16 space group operations
 (whereof 16 operations were pure point group operations)
 out of a pool of 16 trial point group operations.


The static configuration has the point symmetry D_4h.


Analysis of symmetry for dynamics (positions and initial velocities):
=====================================================================
 Subroutine PRICEL returns following result:
 
  LATTYP: Found a simple tetragonal cell.
 ALAT       =    15.0000000000
 C/A-ratio  =     0.0400000000
  
  Lattice vectors:
  
 A1 = (  15.0000000000,   0.0000000000,   0.0000000000)
 A2 = (   0.0000000000,  15.0000000000,   0.0000000000)
 A3 = (   0.0000000000,   0.0000000000,   0.6000000000)
 
   8 primitive cells build up your supercell.
 

 Routine SETGRP: Setting up the symmetry group for a 
 simple tetragonal supercell.


 Subroutine GETGRP returns: Found 16 space group operations
 (whereof 16 operations were pure point group operations)
 out of a pool of 16 trial point group operations.


The dynamic configuration has the point symmetry D_4h.


Analysis of structural, dynamic, and magnetic symmetry:
=====================================================================
 Subroutine PRICEL returns following result:
 
  LATTYP: Found a simple tetragonal cell.
 ALAT       =    15.0000000000
 C/A-ratio  =     0.0400000000
  
  Lattice vectors:
  
 A1 = (  15.0000000000,   0.0000000000,   0.0000000000)
 A2 = (   0.0000000000,  15.0000000000,   0.0000000000)
 A3 = (   0.0000000000,   0.0000000000,   0.6000000000)
 
   8 primitive cells build up your supercell.
 

 Routine SETGRP: Setting up the symmetry group for a 
 simple tetragonal supercell.


 Subroutine GETGRP returns: Found 16 space group operations
 (whereof 16 operations were pure point group operations)
 out of a pool of 16 trial point group operations.


The magnetic configuration has the point symmetry D_4h.


 Subroutine INISYM returns: Found 16 space group operations
 (whereof 16 operations are pure point group operations),
 and found     8 'primitive' translations

 
 
 KPOINTS: Automatic kpoint scheme                 

Automatic generation of k-mesh.
Space group operators:
 irot       det(A)        alpha          n_x          n_y          n_z        tau_x        tau_y        tau_z
    1     1.000000     0.000000     1.000000     0.000000     0.000000     0.000000     0.000000     0.000000
    2    -1.000000     0.000000     1.000000     0.000000     0.000000     0.000000     0.000000     0.000000
    3     1.000000    90.000000     0.000000     0.000000    -1.000000     0.000000     0.000000     0.000000
    4    -1.000000    90.000000     0.000000     0.000000    -1.000000     0.000000     0.000000     0.000000
    5     1.000000   180.000000    -0.000000    -0.000000     1.000000     0.000000     0.000000     0.000000
    6    -1.000000   180.000000    -0.000000    -0.000000     1.000000     0.000000     0.000000     0.000000
    7     1.000000    90.000000    -0.000000    -0.000000     1.000000     0.000000     0.000000     0.000000
    8    -1.000000    90.000000    -0.000000    -0.000000     1.000000     0.000000     0.000000     0.000000
    9     1.000000   180.000000     0.000000     1.000000     0.000000     0.000000     0.000000     0.000000
   10    -1.000000   180.000000     0.000000     1.000000     0.000000     0.000000     0.000000     0.000000
   11     1.000000   180.000000     0.707107     0.707107     0.000000     0.000000     0.000000     0.000000
   12    -1.000000   180.000000     0.707107     0.707107     0.000000     0.000000     0.000000     0.000000
   13     1.000000   180.000000     1.000000    -0.000000     0.000000     0.000000     0.000000     0.000000
   14    -1.000000   180.000000     1.000000    -0.000000     0.000000     0.000000     0.000000     0.000000
   15     1.000000   180.000000     0.707107    -0.707107     0.000000     0.000000     0.000000     0.000000
   16    -1.000000   180.000000     0.707107    -0.707107     0.000000     0.000000     0.000000     0.000000
 
 Subroutine IBZKPT returns following result:
 ===========================================
 
 Found      1 irreducible k-points:
 
 Following reciprocal coordinates:
            Coordinates               Weight
  0.000000  0.000000  0.000000      1.000000
 
 Following cartesian coordinates:
            Coordinates               Weight
  0.000000  0.000000  0.000000      1.000000
 


--------------------------------------------------------------------------------------------------------




 Dimension of arrays:
   k-points           NKPTS =      1   k-points in BZ     NKDIM =      1   number of bands    NBANDS=     12
   number of dos      NEDOS =    301   number of ions     NIONS =      8
   non local maximal  LDIM  =      3   non local SUM 2l+1 LMDIM =      5
   total plane-waves  NPLWV =  81920
   max r-space proj   IRMAX =      1   max aug-charges    IRDMAX=    568
   dimension x,y,z NGX =    64 NGY =   64 NGZ =   20
   dimension x,y,z NGXF=   128 NGYF=  128 NGZF=   40
   support grid    NGXF=   128 NGYF=  128 NGZF=   40
   ions per type =               8
   NGX,Y,Z   is equivalent  to a cutoff of   7.09,  7.09,  6.93 a.u.
   NGXF,Y,Z  is equivalent  to a cutoff of  14.19, 14.19, 13.85 a.u.

 SYSTEM =  unknown system                          
 POSCAR =  H8                                      

 Startparameter for this run:
   NWRITE =      2    write-flag & timer
   PREC   = normal    normal or accurate (medium, high low for compatibility)
   ISTART =      0    job   : 0-new  1-cont  2-samecut
   ICHARG =      2    charge: 1-file 2-atom 10-const
   ISPIN  =      2    spin polarized calculation?
   LNONCOLLINEAR =      F non collinear calculations
   LSORBIT =      F    spin-orbit coupling
   INIWAV =      1    electr: 0-lowe 1-rand  2-diag
   LASPH  =      F    aspherical Exc in radial PAW
   METAGGA=      F    non-selfconsistent MetaGGA calc.

 Electronic Relaxation 1
   ENCUT  =  300.0 eV  22.05 Ry    4.70 a.u.  21.18 21.18  6.78*2*pi/ulx,y,z
   ENINI  =  300.0     initial cutoff
   ENAUG  =  400.0 eV  augmentation charge cutoff
   NELM   =    100;   NELMIN=  2; NELMDL= -5     # of ELM steps 
   EDIFF  = 0.1E-05   stopping-criterion for ELM
   LREAL  =      F    real-space projection
   NLSPLINE    = F    spline interpolate recip. space projectors
   LCOMPAT=      F    compatible to vasp.4.4
   GGA_COMPAT  = T    GGA compatible to vasp.4.4-vasp.4.6
   LMAXPAW     = -100 max onsite density
   LMAXMIX     =    2 max onsite mixed and CHGCAR
   VOSKOWN=      0    Vosko Wilk Nusair interpolation
   ROPT   =    0.00000
 Ionic relaxation
   EDIFFG = 0.1E-04   stopping-criterion for IOM
   NSW    =      0    number of steps for IOM
   NBLOCK =      1;   KBLOCK =      1    inner block; outer block 
   IBRION =     -1    ionic relax: 0-MD 1-quasi-New 2-CG
   NFREE  =      0    steps in history (QN), initial steepest desc. (CG)
   ISIF   =      2    stress and relaxation
   IWAVPR =     10    prediction:  0-non 1-charg 2-wave 3-comb
   ISYM   =      2    0-nonsym 1-usesym 2-fastsym
   LCORR  =      T    Harris-Foulkes like correction to forces

   POTIM  = 0.5000    time-step for ionic-motion
   TEIN   =    0.0    initial temperature
   TEBEG  =    0.0;   TEEND  =   0.0 temperature during run
   SMASS  =  -3.00    Nose mass-parameter (am)
   estimated Nose-frequenzy (Omega)   =  0.10E-29 period in steps =****** mass=  -0.514E-26a.u.
   SCALEE = 1.0000    scale energy and forces
   NPACO  =    256;   APACO  = 16.0  distance and # of slots for P.C.
   PSTRESS=    0.0 pullay stress

  Mass of Ions in am
   POMASS =   1.00
  Ionic Valenz
   ZVAL   =   1.00
  Atomic Wigner-Seitz radii
   RWIGS  =  -1.00
  virtual crystal weights 
   VCA    =   1.00
   NELECT =       8.0000    total number of electrons
   NUPDOWN=       0.0000    fix difference up-down

 DOS related values:
   EMIN   =  10.00;   EMAX   =-10.00  energy-range for DOS
   EFERMI =   0.00
   ISMEAR =     0;   SIGMA  =   0.20  broadening in eV -4-tet -1-fermi 0-gaus

 Electronic relaxation 2 (details)
   IALGO  =     38    algorithm
   LDIAG  =      T    sub-space diagonalisation (order eigenvalues)
   LSUBROT=      F    optimize rotation matrix (better conditioning)
   TURBO    =      0    0=normal 1=particle mesh
   IRESTART =      0    0=no restart 2=restart with 2 vectors
   NREBOOT  =      0    no. of reboots
   NMIN     =      0    reboot dimension
   EREF     =   0.00    reference energy to select bands
   IMIX   =      4    mixing-type and parameters
     AMIX     =   0.40;   BMIX     =  1.00
     AMIX_MAG =   1.60;   BMIX_MAG =  1.00
     AMIN     =   0.10
     WC   =   100.;   INIMIX=   1;  MIXPRE=   1;  MAXMIX= -45

 Intra band minimization:
   WEIMIN = 0.0000     energy-eigenvalue tresh-hold
   EBREAK =  0.21E-07  absolut break condition
   DEPER  =   0.30     relativ break condition  

   TIME   =   0.40     timestep for ELM

  volume/ion in A,a.u.               =     135.00       911.02
  Fermi-wavevector in a.u.,A,eV,Ry     =   0.319127  0.603063  1.385645  0.101842
  Thomas-Fermi vector in A             =   1.204580
 
 Write flags
   LWAVE        =      F    write WAVECAR
   LDOWNSAMPLE  =      F    k-point downsampling of WAVECAR
   LCHARG       =      F    write CHGCAR
   LVTOT        =      F    write LOCPOT, total local potential
   LVHAR        =      F    write LOCPOT, Hartree potential only
   LELF         =      F    write electronic localiz. function (ELF)
   LORBIT       =      0    0 simple, 1 ext, 2 COOP (PROOUT), +10 PAW based schemes


 Dipole corrections
   LMONO  =      F    monopole corrections only (constant potential shift)
   LDIPOL =      F    correct potential (dipole corrections)
   IDIPOL =      0    1-x, 2-y, 3-z, 4-all directions 
   EPSILON=  1.0000000 bulk dielectric constant

 Exchange correlation treatment:
   GGA     =    --    GGA type
   LEXCH   =     8    internal setting for exchange type
   VOSKOWN=      0    Vosko Wilk Nusair interpolation
   LHFCALC =     F    Hartree Fock is set to
   LHFONE  =     F    Hartree Fock one center treatment
   AEXX    =    0.0000 exact exchange contribution

 Linear response parameters
   LEPSILON=     F    determine dielectric tensor
   LRPA    =     F    only Hartree local field effects (RPA)
   LNABLA  =     F    use nabla operator in PAW spheres
   LVEL    =     F    velocity operator in full k-point grid
   LINTERFAST=   F  fast interpolation
   KINTER  =     0    interpolate to denser k-point grid
   CSHIFT  =0.1000    complex shift for real part using Kramers Kronig
   OMEGAMAX=  -1.0    maximum frequency
   DEG_THRESHOLD= 0.2000000E-02 threshold for treating states as degnerate
   RTIME   =   -0.100 relaxation time in fs
  (WPLASMAI=    0.000 imaginary part of plasma frequency in eV, 0.658/RTIME)
   DFIELD  = 0.0000000 0.0000000 0.0000000 field for delta impulse in time
 
 Orbital magnetization related:
   ORBITALMAG=     F  switch on orbital magnetization
   LCHIMAG   =     F  perturbation theory with respect to B field
   DQ        =  0.001000  dq finite difference perturbation B field
   LLRAUG    =     F  two centre corrections for induced B field



--------------------------------------------------------------------------------------------------------


 Static calculation
 charge density and potential will be updated during run
 spin polarized calculation
 Variant of blocked Davidson
 Davidson routine will perform the subspace rotation
 perform sub-space diagonalisation
    after iterative eigenvector-optimisation
 modified Broyden-mixing scheme, WC =      100.0
 initial mixing is a Kerker type mixing with AMIX =  0.4000 and BMIX =      1.0000
 Hartree-type preconditioning will be used
 using additional bands            8
 reciprocal scheme for non local part
 calculate Harris-corrections to forces 
   (improved forces if not selfconsistent)
 use gradient corrections 
 use of overlap-Matrix (Vanderbilt PP)
 Gauss-broadening in eV      SIGMA  =   0.20


--------------------------------------------------------------------------------------------------------


  energy-cutoff  :      300.00
  volume of cell :     1080.00
      direct lattice vectors                 reciprocal lattice vectors
    15.000000000  0.000000000  0.000000000     0.066666667 -0.000000000  0.000000000
     0.000000000 15.000000000  0.000000000     0.000000000  0.066666667  0.000000000
     0.000000000  0.000000000  4.800000000    -0.000000000 -0.000000000  0.208333333

  length of vectors
    15.000000000 15.000000000  4.800000000     0.066666667  0.066666667  0.208333333


 
 k-points in units of 2pi/SCALE and weight: Automatic kpoint scheme                 
   0.00000000  0.00000000  0.00000000       1.000
 
 k-points in reciprocal lattice and weights: Automatic kpoint scheme                 
   0.00000000  0.00000000  0.00000000       1.000
 
 position of ions in fractional coordinates (direct lattice) 
   0.00000000  0.00000000  0.00000000
   0.00000000  0.00000000  0.12500000
   0.00000000  0.00000000  0.25000000
   0.00000000  0.00000000  0.37500000
   0.00000000  0.00000000  0.50000000
   0.00000000  0.00000000  0.62500000
   0.00000000  0.00000000  0.75000000
   0.00000000  0.00000000  0.87500000
 
 position of ions in cartesian coordinates  (Angst):
   0.00000000  0.00000000  0.00000000
   0.00000000  0.00000000  0.60000000
   0.00000000  0.00000000  1.20000000
   0.00000000  0.00000000  1.80000000
   0.00000000  0.00000000  2.40000000
   0.00000000  0.00000000  3.00000000
   0.00000000  0.00000000  3.60000000
   0.00000000  0.00000000  4.20000000
 


--------------------------------------------------------------------------------------------------------


 k-point  1 :   0.0000 0.0000 0.0000  plane waves:   12705

 maximum and minimum number of plane-waves per node :     12705    12705

 maximum number of plane-waves:     12705
 maximum index in each direction: 
   IXMAX=   21   IYMAX=   21   IZMAX=    6
   IXMIN=  -21   IYMIN=  -21   IZMIN=   -6


 serial   3D FFT for wavefunctions
 parallel 3D FFT for charge:
    minimum data exchange during FFTs selected (reduces bandwidth)


 total amount of memory used by VASP MPI-rank0    58449. kBytes
=======================================================================

   base      :      30000. kBytes
   nonl-proj :       2134. kBytes
   fftplans  :       6134. kBytes
   grid      :      18939. kBytes
   one-center:         19. kBytes
   wavefun   :       1223. kBytes
 
     INWAV:  cpu time    0.0000: real time    0.0000
 Broyden mixing: mesh for mixing (old mesh)
   NGX = 43   NGY = 43   NGZ = 13
  (NGX  =128   NGY  =128   NGZ  = 40)
  gives a total of  24037 points

 initial charge density was supplied:
 charge density of overlapping atoms calculated
 number of electron       8.0000000 magnetization       0.0000000
 keeping initial charge density in first step


--------------------------------------------------------------------------------------------------------


 Maximum index for augmentation-charges           79 (set IRDMAX)


--------------------------------------------------------------------------------------------------------


 First call to EWALD:  gamma=   0.173
 Maximum number of real-space cells 2x 2x 5
 Maximum number of reciprocal cells 4x 4x 2

    FEWALD:  cpu time    0.0017: real time    0.0017


--------------------------------------- Iteration      1(   1)  ---------------------------------------


    POTLOK:  cpu time    0.2266: real time    0.2266
    SETDIJ:  cpu time    0.0093: real time    0.0094
     EDDAV:  cpu time    0.1387: real time    0.1387
       DOS:  cpu time    0.0003: real time    0.0003
    --------------------------------------------
      LOOP:  cpu time    0.3750: real time    0.3750

 eigenvalue-minimisations  :    64
 total energy-change (2. order) : 0.2333140E+02  (-0.1488766E+03)
 number of electron       8.0000000 magnetization       0.0000000
 augmentation part        8.0000000 magnetization       0.0000000

 Free energy of the ion-electron system (eV)
  ---------------------------------------------------
  alpha Z        PSCENC =         0.14436548
  Ewald energy   TEWEN  =       344.13789722
  -Hartree energ DENC   =      -310.91815961
  -exchange      EXHF   =         0.00000000
  -V(xc)+E(xc)   XCENC  =        22.03686006
  PAW double counting   =        17.07221949      -17.14324176
  entropy T*S    EENTRO =        -0.08996252
  eigenvalues    EBANDS =      -131.47478101
  atomic energy  EATOM  =        99.56620307
  Solvation  Ediel_sol  =         0.00000000
  ---------------------------------------------------
  free energy    TOTEN  =        23.33140042 eV

  energy without entropy =       23.42136293  energy(sigma->0) =       23.37638168


--------------------------------------------------------------------------------------------------------




--------------------------------------- Iteration      1(   2)  ---------------------------------------


     EDDAV:  cpu time    0.1144: real time    0.1143
       DOS:  cpu time    0.0003: real time    0.0003
    --------------------------------------------
      LOOP:  cpu time    0.1146: real time    0.1146

 eigenvalue-minimisations  :    52
 total energy-change (2. order) :-0.2373099E+02  (-0.2362219E+02)
 number of electron       8.0000000 magnetization       0.0000000
 augmentation part        8.0000000 magnetization       0.0000000

 Free energy of the ion-electron system (eV)
  ---------------------------------------------------
  alpha Z        PSCENC =         0.14436548
  Ewald energy   TEWEN  =       344.13789722
  -Hartree energ DENC   =      -310.91815961
  -exchange      EXHF   =         0.00000000
  -V(xc)+E(xc)   XCENC  =        22.03686006
  PAW double counting   =        17.07221949      -17.14324176
  entropy T*S    EENTRO =        -0.14348728
  eigenvalues    EBANDS =      -155.15224623
  atomic energy  EATOM  =        99.56620307
  Solvation  Ediel_sol  =         0.00000000
  ---------------------------------------------------
  free energy    TOTEN  =        -0.39958957 eV

  energy without entropy =       -0.25610229  energy(sigma->0) =       -0.32784593


--------------------------------------------------------------------------------------------------------




--------------------------------------- Iteration      1(   3)  ---------------------------------------


     EDDAV:  cpu time    0.1895: real time    0.1894
       DOS:  cpu time    0.0002: real time    0.0002
    --------------------------------------------
      LOOP:  cpu time    0.1897: real time    0.1897

 eigenvalue-minimisations  :    96
 total energy-change (2. order) :-0.2289492E+01  (-0.2068670E+01)
 number of electron       8.0000000 magnetization       0.0000000
 augmentation part        8.0000000 magnetization       0.0000000

 Free energy of the ion-electron system (eV)
  ---------------------------------------------------
  alpha Z        PSCENC =         0.14436548
  Ewald energy   TEWEN  =       344.13789722
  -Hartree energ DENC   =      -310.91815961
  -exchange      EXHF   =         0.00000000
  -V(xc)+E(xc)   XCENC  =        22.03686006
  PAW double counting   =        17.07221949      -17.14324176
  entropy T*S    EENTRO =        -0.01803612
  eigenvalues    EBANDS =      -157.56718946
  atomic energy  EATOM  =        99.56620307
  Solvation  Ediel_sol  =         0.00000000
  ---------------------------------------------------
  free energy    TOTEN  =        -2.68908164 eV

  energy without entropy =       -2.67104551  energy(sigma->0) =       -2.68006357


--------------------------------------------------------------------------------------------------------




--------------------------------------- Iteration      1(   4)  ---------------------------------------


     EDDAV:  cpu time    0.1222: real time    0.1222
       DOS:  cpu time    0.0002: real time    0.0002
    --------------------------------------------
      LOOP:  cpu time    0.1225: real time    0.1224

 eigenvalue-minimisations  :    56
 total energy-change (2. order) :-0.1614578E+00  (-0.1542698E+00)
 number of electron       8.0000000 magnetization       0.0000000
 augmentation part        8.0000000 magnetization       0.0000000

 Free energy of the ion-electron system (eV)
  ---------------------------------------------------
  alpha Z        PSCENC =         0.14436548
  Ewald energy   TEWEN  =       344.13789722
  -Hartree energ DENC   =      -310.91815961
  -exchange      EXHF   =         0.00000000
  -V(xc)+E(xc)   XCENC  =        22.03686006
  PAW double counting   =        17.07221949      -17.14324176
  entropy T*S    EENTRO =        -0.03747959
  eigenvalues    EBANDS =      -157.70920377
  atomic energy  EATOM  =        99.56620307
  Solvation  Ediel_sol  =         0.00000000
  ---------------------------------------------------
  free energy    TOTEN  =        -2.85053942 eV

  energy without entropy =       -2.81305983  energy(sigma->0) =       -2.83179962


--------------------------------------------------------------------------------------------------------




--------------------------------------- Iteration      1(   5)  ---------------------------------------


     EDDAV:  cpu time    0.1385: real time    0.1385
       DOS:  cpu time    0.0003: real time    0.0003
    CHARGE:  cpu time    0.0682: real time    0.0682
    MIXING:  cpu time    0.0044: real time    0.0044
    --------------------------------------------
      LOOP:  cpu time    0.2115: real time    0.2114

 eigenvalue-minimisations  :    64
 total energy-change (2. order) :-0.1884894E+00  (-0.2870602E-01)
 number of electron       8.0000318 magnetization      -0.0000000
 augmentation part        0.3089903 magnetization      -0.0000672

 Broyden mixing:
  rms(total) = 0.14839E+01    rms(broyden)= 0.14799E+01
  rms(prec ) = 0.16807E+01
  weight for this iteration     100.00

 Free energy of the ion-electron system (eV)
  ---------------------------------------------------
  alpha Z        PSCENC =         0.14436548
  Ewald energy   TEWEN  =       344.13789722
  -Hartree energ DENC   =      -310.91815961
  -exchange      EXHF   =         0.00000000
  -V(xc)+E(xc)   XCENC  =        22.03686006
  PAW double counting   =        17.07221949      -17.14324176
  entropy T*S    EENTRO =        -0.22389114
  eigenvalues    EBANDS =      -157.71128164
  atomic energy  EATOM  =        99.56620307
  Solvation  Ediel_sol  =         0.00000000
  ---------------------------------------------------
  free energy    TOTEN  =        -3.03902884 eV

  energy without entropy =       -2.81513769  energy(sigma->0) =       -2.92708326


--------------------------------------------------------------------------------------------------------




--------------------------------------- Iteration      1(   6)  ---------------------------------------


    POTLOK:  cpu time    0.2267: real time    0.2267
    SETDIJ:  cpu time    0.0101: real time    0.0101
     EDDAV:  cpu time    0.1085: real time    0.1085
       DOS:  cpu time    0.0003: real time    0.0003
    CHARGE:  cpu time    0.0651: real time    0.0651
    MIXING:  cpu time    0.0048: real time    0.0048
    --------------------------------------------
      LOOP:  cpu time    0.4156: real time    0.4155

 eigenvalue-minimisations  :    48
 total energy-change (2. order) : 0.1886917E+01  (-0.3995290E+01)
 number of electron       8.0000236 magnetization      -0.0000000
 augmentation part        0.2176849 magnetization      -0.0000046

 Broyden mixing:
  rms(total) = 0.26580E+00    rms(broyden)= 0.26224E+00
  rms(prec ) = 0.33631E+00
  weight for this iteration     100.00

 eigenvalues of (default mixing * dielectric matrix)
  average eigenvalue GAMMA=   1.0586
  1.0586

 Free energy of the ion-electron system (eV)
  ---------------------------------------------------
  alpha Z        PSCENC =         0.14436548
  Ewald energy   TEWEN  =       344.13789722
  -Hartree energ DENC   =      -334.26937551
  -exchange      EXHF   =         0.00000000
  -V(xc)+E(xc)   XCENC  =        24.09596885
  PAW double counting   =       102.34335178     -102.59470470
  entropy T*S    EENTRO =        -0.22567597
  eigenvalues    EBANDS =      -134.35014201
  atomic energy  EATOM  =        99.56620307
  Solvation  Ediel_sol  =         0.00000000
  ---------------------------------------------------
  free energy    TOTEN  =        -1.15211179 eV

  energy without entropy =       -0.92643582  energy(sigma->0) =       -1.03927380


--------------------------------------------------------------------------------------------------------




--------------------------------------- Iteration      1(   7)  ---------------------------------------


    POTLOK:  cpu time    0.2283: real time    0.2282
    SETDIJ:  cpu time    0.0102: real time    0.0102
     EDDAV:  cpu time    0.1109: real time    0.1109
       DOS:  cpu time    0.0003: real time    0.0003
    CHARGE:  cpu time    0.0654: real time    0.0654
    MIXING:  cpu time    0.0053: real time    0.0053
    --------------------------------------------
      LOOP:  cpu time    0.4204: real time    0.4204

 eigenvalue-minimisations  :    48
 total energy-change (2. order) : 0.6679815E-01  (-0.1242377E-01)
 number of electron       8.0000238 magnetization      -0.0000000
 augmentation part        0.2190217 magnetization       0.0000056

 Broyden mixing:
  rms(total) = 0.16634E+00    rms(broyden)= 0.16615E+00
  rms(prec ) = 0.21620E+00
  weight for this iteration     100.00

 eigenvalues of (default mixing * dielectric matrix)
  average eigenvalue GAMMA=   1.8099
  0.9937  2.6261

 Free energy of the ion-electron system (eV)
  ---------------------------------------------------
  alpha Z        PSCENC =         0.14436548
  Ewald energy   TEWEN  =       344.13789722
  -Hartree energ DENC   =      -328.29856983
  -exchange      EXHF   =         0.00000000
  -V(xc)+E(xc)   XCENC  =        23.73811035
  PAW double counting   =       137.11175346     -137.40590694
  entropy T*S    EENTRO =        -0.22567583
  eigenvalues    EBANDS =      -139.85349062
  atomic energy  EATOM  =        99.56620307
  Solvation  Ediel_sol  =         0.00000000
  ---------------------------------------------------
  free energy    TOTEN  =        -1.08531364 eV

  energy without entropy =       -0.85963781  energy(sigma->0) =       -0.97247572


--------------------------------------------------------------------------------------------------------




--------------------------------------- Iteration      1(   8)  ---------------------------------------


    POTLOK:  cpu time    0.2254: real time    0.2253
    SETDIJ:  cpu time    0.0100: real time    0.0100
     EDDAV:  cpu time    0.1087: real time    0.1087
       DOS:  cpu time    0.0003: real time    0.0003
    CHARGE:  cpu time    0.0651: real time    0.0651
    MIXING:  cpu time    0.0055: real time    0.0055
    --------------------------------------------
      LOOP:  cpu time    0.4150: real time    0.4149

 eigenvalue-minimisations  :    48
 total energy-change (2. order) : 0.1132314E+00  (-0.3819693E-01)
 number of electron       8.0000241 magnetization      -0.0000000
 augmentation part        0.2218462 magnetization       0.0000016

 Broyden mixing:
  rms(total) = 0.23533E-01    rms(broyden)= 0.23505E-01
  rms(prec ) = 0.36150E-01
  weight for this iteration     100.00

 eigenvalues of (default mixing * dielectric matrix)
  average eigenvalue GAMMA=   1.5080
  2.6405  0.9418  0.9418

 Free energy of the ion-electron system (eV)
  ---------------------------------------------------
  alpha Z        PSCENC =         0.14436548
  Ewald energy   TEWEN  =       344.13789722
  -Hartree energ DENC   =      -317.88558013
  -exchange      EXHF   =         0.00000000
  -V(xc)+E(xc)   XCENC  =        23.31864224
  PAW double counting   =       209.18072151     -209.55893525
  entropy T*S    EENTRO =        -0.22567583
  eigenvalues    EBANDS =      -149.64972055
  atomic energy  EATOM  =        99.56620307
  Solvation  Ediel_sol  =         0.00000000
  ---------------------------------------------------
  free energy    TOTEN  =        -0.97208225 eV

  energy without entropy =       -0.74640641  energy(sigma->0) =       -0.85924433


--------------------------------------------------------------------------------------------------------




--------------------------------------- Iteration      1(   9)  ---------------------------------------


    POTLOK:  cpu time    0.2268: real time    0.2268
    SETDIJ:  cpu time    0.0101: real time    0.0101
     EDDAV:  cpu time    0.1217: real time    0.1364
       DOS:  cpu time    0.0003: real time    0.0003
    CHARGE:  cpu time    0.0661: real time    0.0660
    MIXING:  cpu time    0.0059: real time    0.0059
    --------------------------------------------
      LOOP:  cpu time    0.4308: real time    0.4454

 eigenvalue-minimisations  :    56
 total energy-change (2. order) :-0.1666972E-02  (-0.2046990E-02)
 number of electron       8.0000241 magnetization      -0.0000000
 augmentation part        0.2218673 magnetization      -0.0000016

 Broyden mixing:
  rms(total) = 0.23059E-01    rms(broyden)= 0.23058E-01
  rms(prec ) = 0.34203E-01
  weight for this iteration     100.00

 eigenvalues of (default mixing * dielectric matrix)
  average eigenvalue GAMMA=   1.2405
  2.2973  0.9418  0.9418  0.7811

 Free energy of the ion-electron system (eV)
  ---------------------------------------------------
  alpha Z        PSCENC =         0.14436548
  Ewald energy   TEWEN  =       344.13789722
  -Hartree energ DENC   =      -317.83327785
  -exchange      EXHF   =         0.00000000
  -V(xc)+E(xc)   XCENC  =        23.31765529
  PAW double counting   =       209.17744725     -209.55584495
  entropy T*S    EENTRO =        -0.22567583
  eigenvalues    EBANDS =      -149.70251889
  atomic energy  EATOM  =        99.56620307
  Solvation  Ediel_sol  =         0.00000000
  ---------------------------------------------------
  free energy    TOTEN  =        -0.97374922 eV

  energy without entropy =       -0.74807339  energy(sigma->0) =       -0.86091130


--------------------------------------------------------------------------------------------------------




--------------------------------------- Iteration      1(  10)  ---------------------------------------


    POTLOK:  cpu time    0.2229: real time    0.2228
    SETDIJ:  cpu time    0.0100: real time    0.0100
     EDDAV:  cpu time    0.1075: real time    0.1075
       DOS:  cpu time    0.0003: real time    0.0003
    CHARGE:  cpu time    0.0660: real time    0.0660
    MIXING:  cpu time    0.0062: real time    0.0062
    --------------------------------------------
      LOOP:  cpu time    0.4129: real time    0.4127

 eigenvalue-minimisations  :    48
 total energy-change (2. order) :-0.1282651E-01  (-0.1646123E-02)
 number of electron       8.0000240 magnetization      -0.0000000
 augmentation part        0.2211674 magnetization      -0.0000005

 Broyden mixing:
  rms(total) = 0.28531E-01    rms(broyden)= 0.28527E-01
  rms(prec ) = 0.48885E-01
  weight for this iteration     100.00

 eigenvalues of (default mixing * dielectric matrix)
  average eigenvalue GAMMA=   1.4827
  2.4567  1.6392  1.6392  0.9944  0.6841

 Free energy of the ion-electron system (eV)
  ---------------------------------------------------
  alpha Z        PSCENC =         0.14436548
  Ewald energy   TEWEN  =       344.13789722
  -Hartree energ DENC   =      -319.88831985
  -exchange      EXHF   =         0.00000000
  -V(xc)+E(xc)   XCENC  =        23.41606990
  PAW double counting   =       201.19328825     -201.56394593
  entropy T*S    EENTRO =        -0.22567583
  eigenvalues    EBANDS =      -147.76645804
  atomic energy  EATOM  =        99.56620307
  Solvation  Ediel_sol  =         0.00000000
  ---------------------------------------------------
  free energy    TOTEN  =        -0.98657573 eV

  energy without entropy =       -0.76089990  energy(sigma->0) =       -0.87373781


--------------------------------------------------------------------------------------------------------




--------------------------------------- Iteration      1(  11)  ---------------------------------------


    POTLOK:  cpu time    0.2256: real time    0.2255
    SETDIJ:  cpu time    0.0102: real time    0.0102
     EDDAV:  cpu time    0.1093: real time    0.1093
       DOS:  cpu time    0.0003: real time    0.0003
    CHARGE:  cpu time    0.0654: real time    0.0654
    MIXING:  cpu time    0.0066: real time    0.0066
    --------------------------------------------
      LOOP:  cpu time    0.4174: real time    0.4173

 eigenvalue-minimisations  :    48
 total energy-change (2. order) :-0.8808025E-02  (-0.1323462E-02)
 number of electron       8.0000240 magnetization      -0.0000000
 augmentation part        0.2205793 magnetization       0.0000033

 Broyden mixing:
  rms(total) = 0.37083E-01    rms(broyden)= 0.37079E-01
  rms(prec ) = 0.61242E-01
  weight for this iteration     100.00

 eigenvalues of (default mixing * dielectric matrix)
  average eigenvalue GAMMA=   1.4111
  2.7371  1.7377  1.7377  1.0163  0.6424  0.5956

 Free energy of the ion-electron system (eV)
  ---------------------------------------------------
  alpha Z        PSCENC =         0.14436548
  Ewald energy   TEWEN  =       344.13789722
  -Hartree energ DENC   =      -320.65041477
  -exchange      EXHF   =         0.00000000
  -V(xc)+E(xc)   XCENC  =        23.49902594
  PAW double counting   =       207.98708680     -208.36800377
  entropy T*S    EENTRO =        -0.22567583
  eigenvalues    EBANDS =      -147.08586789
  atomic energy  EATOM  =        99.56620307
  Solvation  Ediel_sol  =         0.00000000
  ---------------------------------------------------
  free energy    TOTEN  =        -0.99538375 eV

  energy without entropy =       -0.76970792  energy(sigma->0) =       -0.88254584


--------------------------------------------------------------------------------------------------------




--------------------------------------- Iteration      1(  12)  ---------------------------------------


    POTLOK:  cpu time    0.2233: real time    0.2232
    SETDIJ:  cpu time    0.0101: real time    0.0101
     EDDAV:  cpu time    0.1347: real time    0.1346
       DOS:  cpu time    0.0003: real time    0.0003
    CHARGE:  cpu time    0.0653: real time    0.0653
    MIXING:  cpu time    0.0070: real time    0.0070
    --------------------------------------------
      LOOP:  cpu time    0.4406: real time    0.4404

 eigenvalue-minimisations  :    64
 total energy-change (2. order) :-0.9276736E-04  (-0.2444312E-04)
 number of electron       8.0000240 magnetization      -0.0000000
 augmentation part        0.2205414 magnetization       0.0000037

 Broyden mixing:
  rms(total) = 0.37868E-01    rms(broyden)= 0.37867E-01
  rms(prec ) = 0.61670E-01
  weight for this iteration     100.00

 eigenvalues of (default mixing * dielectric matrix)
  average eigenvalue GAMMA=   1.2212
  2.7535  1.7295  1.7295  1.0177  0.6418  0.5657  0.1106

 Free energy of the ion-electron system (eV)
  ---------------------------------------------------
  alpha Z        PSCENC =         0.14436548
  Ewald energy   TEWEN  =       344.13789722
  -Hartree energ DENC   =      -320.54092589
  -exchange      EXHF   =         0.00000000
  -V(xc)+E(xc)   XCENC  =        23.50078570
  PAW double counting   =       208.75183095     -209.13398342
  entropy T*S    EENTRO =        -0.22567583
  eigenvalues    EBANDS =      -147.19597380
  atomic energy  EATOM  =        99.56620307
  Solvation  Ediel_sol  =         0.00000000
  ---------------------------------------------------
  free energy    TOTEN  =        -0.99547652 eV

  energy without entropy =       -0.76980069  energy(sigma->0) =       -0.88263861


--------------------------------------------------------------------------------------------------------




--------------------------------------- Iteration      1(  13)  ---------------------------------------


    POTLOK:  cpu time    0.2302: real time    0.2301
    SETDIJ:  cpu time    0.0103: real time    0.0103
     EDDAV:  cpu time    0.1218: real time    0.1219
       DOS:  cpu time    0.0003: real time    0.0003
    CHARGE:  cpu time    0.0666: real time    0.0665
    MIXING:  cpu time    0.0080: real time    0.0080
    --------------------------------------------
      LOOP:  cpu time    0.4372: real time    0.4371

 eigenvalue-minimisations  :    56
 total energy-change (2. order) :-0.1971628E-02  (-0.2076224E-04)
 number of electron       8.0000239 magnetization      -0.0000000
 augmentation part        0.2204842 magnetization       0.0000042

 Broyden mixing:
  rms(total) = 0.39634E-01    rms(broyden)= 0.39634E-01
  rms(prec ) = 0.64619E-01
  weight for this iteration     100.00

 eigenvalues of (default mixing * dielectric matrix)
  average eigenvalue GAMMA=   1.5247
  2.5962  2.3155  2.3155  1.3109  1.3109  0.9995  0.7205  0.6288

 Free energy of the ion-electron system (eV)
  ---------------------------------------------------
  alpha Z        PSCENC =         0.14436548
  Ewald energy   TEWEN  =       344.13789722
  -Hartree energ DENC   =      -320.81158691
  -exchange      EXHF   =         0.00000000
  -V(xc)+E(xc)   XCENC  =        23.51302432
  PAW double counting   =       208.96459349     -209.34695157
  entropy T*S    EENTRO =        -0.22567583
  eigenvalues    EBANDS =      -146.93931741
  atomic energy  EATOM  =        99.56620307
  Solvation  Ediel_sol  =         0.00000000
  ---------------------------------------------------
  free energy    TOTEN  =        -0.99744815 eV

  energy without entropy =       -0.77177232  energy(sigma->0) =       -0.88461023


--------------------------------------------------------------------------------------------------------




--------------------------------------- Iteration      1(  14)  ---------------------------------------


    POTLOK:  cpu time    0.2276: real time    0.2275
    SETDIJ:  cpu time    0.0101: real time    0.0101
     EDDAV:  cpu time    0.1227: real time    0.1227
       DOS:  cpu time    0.0003: real time    0.0003
    CHARGE:  cpu time    0.0664: real time    0.0663
    MIXING:  cpu time    0.0080: real time    0.0080
    --------------------------------------------
      LOOP:  cpu time    0.4351: real time    0.4349

 eigenvalue-minimisations  :    56
 total energy-change (2. order) : 0.1064201E-01  (-0.1074793E-02)
 number of electron       8.0000240 magnetization      -0.0000000
 augmentation part        0.2209388 magnetization       0.0000034

 Broyden mixing:
  rms(total) = 0.26496E-01    rms(broyden)= 0.26494E-01
  rms(prec ) = 0.43702E-01
  weight for this iteration     100.00

 eigenvalues of (default mixing * dielectric matrix)
  average eigenvalue GAMMA=   1.3740
  2.5680  2.3384  2.3384  1.3306  1.3306  0.9994  0.7189  0.6294  0.1118

 Free energy of the ion-electron system (eV)
  ---------------------------------------------------
  alpha Z        PSCENC =         0.14436548
  Ewald energy   TEWEN  =       344.13789722
  -Hartree energ DENC   =      -319.00613718
  -exchange      EXHF   =         0.00000000
  -V(xc)+E(xc)   XCENC  =        23.42241460
  PAW double counting   =       206.15023832     -206.52936655
  entropy T*S    EENTRO =        -0.22567583
  eigenvalues    EBANDS =      -148.64674526
  atomic energy  EATOM  =        99.56620307
  Solvation  Ediel_sol  =         0.00000000
  ---------------------------------------------------
  free energy    TOTEN  =        -0.98680614 eV

  energy without entropy =       -0.76113031  energy(sigma->0) =       -0.87396822


--------------------------------------------------------------------------------------------------------




--------------------------------------- Iteration      1(  15)  ---------------------------------------


    POTLOK:  cpu time    0.2258: real time    0.2258
    SETDIJ:  cpu time    0.0101: real time    0.0101
     EDDAV:  cpu time    0.1145: real time    0.1144
       DOS:  cpu time    0.0003: real time    0.0003
    CHARGE:  cpu time    0.0655: real time    0.0654
    MIXING:  cpu time    0.0087: real time    0.0087
    --------------------------------------------
      LOOP:  cpu time    0.4249: real time    0.4247

 eigenvalue-minimisations  :    52
 total energy-change (2. order) : 0.4369514E-02  (-0.9304740E-03)
 number of electron       8.0000240 magnetization       0.0000000
 augmentation part        0.2212908 magnetization      -0.0000001

 Broyden mixing:
  rms(total) = 0.15465E-01    rms(broyden)= 0.15461E-01
  rms(prec ) = 0.25958E-01
  weight for this iteration     100.00

 eigenvalues of (default mixing * dielectric matrix)
  average eigenvalue GAMMA=   2.1633
  7.6227  4.4332  2.4723  1.4636  1.4636  1.1024  1.0006  0.7641  0.6927  0.6181

 Free energy of the ion-electron system (eV)
  ---------------------------------------------------
  alpha Z        PSCENC =         0.14436548
  Ewald energy   TEWEN  =       344.13789722
  -Hartree energ DENC   =      -317.45253788
  -exchange      EXHF   =         0.00000000
  -V(xc)+E(xc)   XCENC  =        23.35258193
  PAW double counting   =       204.83788518     -205.21651655
  entropy T*S    EENTRO =        -0.22567583
  eigenvalues    EBANDS =      -150.12663924
  atomic energy  EATOM  =        99.56620307
  Solvation  Ediel_sol  =         0.00000000
  ---------------------------------------------------
  free energy    TOTEN  =        -0.98243662 eV

  energy without entropy =       -0.75676079  energy(sigma->0) =       -0.86959871


--------------------------------------------------------------------------------------------------------




--------------------------------------- Iteration      1(  16)  ---------------------------------------


    POTLOK:  cpu time    0.2274: real time    0.2273
    SETDIJ:  cpu time    0.0102: real time    0.0101
     EDDAV:  cpu time    0.1083: real time    0.1083
       DOS:  cpu time    0.0003: real time    0.0003
    CHARGE:  cpu time    0.0655: real time    0.0655
    MIXING:  cpu time    0.0090: real time    0.0090
    --------------------------------------------
      LOOP:  cpu time    0.4207: real time    0.4205

 eigenvalue-minimisations  :    48
 total energy-change (2. order) : 0.1414316E-02  (-0.4751790E-02)
 number of electron       8.0000241 magnetization       0.0000000
 augmentation part        0.2221546 magnetization      -0.0000054

 Broyden mixing:
  rms(total) = 0.12426E-01    rms(broyden)= 0.12407E-01
  rms(prec ) = 0.19656E-01
  weight for this iteration     100.00

 eigenvalues of (default mixing * dielectric matrix)
  average eigenvalue GAMMA=   2.0792
  8.6690  3.9035  2.4826  1.4577  1.4577  1.1370  1.0023  0.7084  0.7084  0.7182
  0.6258

 Free energy of the ion-electron system (eV)
  ---------------------------------------------------
  alpha Z        PSCENC =         0.14436548
  Ewald energy   TEWEN  =       344.13789722
  -Hartree energ DENC   =      -313.41933849
  -exchange      EXHF   =         0.00000000
  -V(xc)+E(xc)   XCENC  =        23.17965516
  PAW double counting   =       202.80385511     -203.18219420
  entropy T*S    EENTRO =        -0.22567625
  eigenvalues    EBANDS =      -153.98578941
  atomic energy  EATOM  =        99.56620307
  Solvation  Ediel_sol  =         0.00000000
  ---------------------------------------------------
  free energy    TOTEN  =        -0.98102231 eV

  energy without entropy =       -0.75534606  energy(sigma->0) =       -0.86818418


--------------------------------------------------------------------------------------------------------




--------------------------------------- Iteration      1(  17)  ---------------------------------------


    POTLOK:  cpu time    0.2267: real time    0.2266
    SETDIJ:  cpu time    0.0102: real time    0.0102
     EDDAV:  cpu time    0.1070: real time    0.1070
       DOS:  cpu time    0.0003: real time    0.0003
    CHARGE:  cpu time    0.0653: real time    0.0653
    MIXING:  cpu time    0.0096: real time    0.0096
    --------------------------------------------
      LOOP:  cpu time    0.4191: real time    0.4188

 eigenvalue-minimisations  :    48
 total energy-change (2. order) :-0.5581804E-03  (-0.1907951E-03)
 number of electron       8.0000241 magnetization       0.0000000
 augmentation part        0.2221555 magnetization      -0.0000022

 Broyden mixing:
  rms(total) = 0.12756E-01    rms(broyden)= 0.12755E-01
  rms(prec ) = 0.20238E-01
  weight for this iteration     100.00

 eigenvalues of (default mixing * dielectric matrix)
  average eigenvalue GAMMA=   2.2720
 11.2232  2.8212  2.8212  2.5151  1.4933  1.4933  1.0012  0.9440  0.9440  0.7412
  0.6211  0.6457

 Free energy of the ion-electron system (eV)
  ---------------------------------------------------
  alpha Z        PSCENC =         0.14436548
  Ewald energy   TEWEN  =       344.13789722
  -Hartree energ DENC   =      -313.38419856
  -exchange      EXHF   =         0.00000000
  -V(xc)+E(xc)   XCENC  =        23.17960942
  PAW double counting   =       202.91335397     -203.29166215
  entropy T*S    EENTRO =        -0.22567625
  eigenvalues    EBANDS =      -154.02147268
  atomic energy  EATOM  =        99.56620307
  Solvation  Ediel_sol  =         0.00000000
  ---------------------------------------------------
  free energy    TOTEN  =        -0.98158049 eV

  energy without entropy =       -0.75590424  energy(sigma->0) =       -0.86874236


--------------------------------------------------------------------------------------------------------




--------------------------------------- Iteration      1(  18)  ---------------------------------------


    POTLOK:  cpu time    0.2263: real time    0.2263
    SETDIJ:  cpu time    0.0102: real time    0.0102
     EDDAV:  cpu time    0.1079: real time    0.1078
       DOS:  cpu time    0.0002: real time    0.0002
    CHARGE:  cpu time    0.0659: real time    0.0659
    MIXING:  cpu time    0.0100: real time    0.0100
    --------------------------------------------
      LOOP:  cpu time    0.4206: real time    0.4204

 eigenvalue-minimisations  :    48
 total energy-change (2. order) : 0.1527759E-02  (-0.2460186E-03)
 number of electron       8.0000241 magnetization       0.0000000
 augmentation part        0.2219159 magnetization      -0.0000002

 Broyden mixing:
  rms(total) = 0.53397E-02    rms(broyden)= 0.53374E-02
  rms(prec ) = 0.89256E-02
  weight for this iteration     100.00

 eigenvalues of (default mixing * dielectric matrix)
  average eigenvalue GAMMA=   2.2182
 10.8786  3.3839  3.3839  2.5048  1.4912  1.4912  1.0001  0.9793  0.9793  0.7170
  0.7170  0.6249  0.6856

 Free energy of the ion-electron system (eV)
  ---------------------------------------------------
  alpha Z        PSCENC =         0.14436548
  Ewald energy   TEWEN  =       344.13789722
  -Hartree energ DENC   =      -314.27423541
  -exchange      EXHF   =         0.00000000
  -V(xc)+E(xc)   XCENC  =        23.22218482
  PAW double counting   =       203.68534578     -204.06400108
  entropy T*S    EENTRO =        -0.22567587
  eigenvalues    EBANDS =      -153.17213674
  atomic energy  EATOM  =        99.56620307
  Solvation  Ediel_sol  =         0.00000000
  ---------------------------------------------------
  free energy    TOTEN  =        -0.98005273 eV

  energy without entropy =       -0.75437686  energy(sigma->0) =       -0.86721479


--------------------------------------------------------------------------------------------------------




--------------------------------------- Iteration      1(  19)  ---------------------------------------


    POTLOK:  cpu time    0.2282: real time    0.2281
    SETDIJ:  cpu time    0.0101: real time    0.0101
     EDDAV:  cpu time    0.1126: real time    0.1126
       DOS:  cpu time    0.0003: real time    0.0003
    CHARGE:  cpu time    0.0652: real time    0.0652
    MIXING:  cpu time    0.0106: real time    0.0106
    --------------------------------------------
      LOOP:  cpu time    0.4270: real time    0.4268

 eigenvalue-minimisations  :    52
 total energy-change (2. order) : 0.3881102E-03  (-0.2763679E-03)
 number of electron       8.0000241 magnetization       0.0000000
 augmentation part        0.2216973 magnetization       0.0000005

 Broyden mixing:
  rms(total) = 0.17848E-02    rms(broyden)= 0.17752E-02
  rms(prec ) = 0.27198E-02
  weight for this iteration     100.00

 eigenvalues of (default mixing * dielectric matrix)
  average eigenvalue GAMMA=   2.1642
  9.9015  4.9895  3.0341  2.4902  1.4803  1.4803  1.1068  1.1068  0.9971  0.9971
  0.7777  0.6866  0.6199  0.6306

 Free energy of the ion-electron system (eV)
  ---------------------------------------------------
  alpha Z        PSCENC =         0.14436548
  Ewald energy   TEWEN  =       344.13789722
  -Hartree energ DENC   =      -315.24975305
  -exchange      EXHF   =         0.00000000
  -V(xc)+E(xc)   XCENC  =        23.26486462
  PAW double counting   =       204.31007513     -204.68901180
  entropy T*S    EENTRO =        -0.22567584
  eigenvalues    EBANDS =      -152.23862945
  atomic energy  EATOM  =        99.56620307
  Solvation  Ediel_sol  =         0.00000000
  ---------------------------------------------------
  free energy    TOTEN  =        -0.97966462 eV

  energy without entropy =       -0.75398878  energy(sigma->0) =       -0.86682670


--------------------------------------------------------------------------------------------------------




--------------------------------------- Iteration      1(  20)  ---------------------------------------


    POTLOK:  cpu time    0.2259: real time    0.2258
    SETDIJ:  cpu time    0.0100: real time    0.0100
     EDDAV:  cpu time    0.1077: real time    0.1076
       DOS:  cpu time    0.0003: real time    0.0003
    CHARGE:  cpu time    0.0654: real time    0.0653
    MIXING:  cpu time    0.0113: real time    0.0113
    --------------------------------------------
      LOOP:  cpu time    0.4205: real time    0.4203

 eigenvalue-minimisations  :    48
 total energy-change (2. order) :-0.5557690E-04  (-0.1122836E-04)
 number of electron       8.0000241 magnetization       0.0000000
 augmentation part        0.2216912 magnetization       0.0000005

 Broyden mixing:
  rms(total) = 0.19727E-02    rms(broyden)= 0.19723E-02
  rms(prec ) = 0.31135E-02
  weight for this iteration     100.00

 eigenvalues of (default mixing * dielectric matrix)
  average eigenvalue GAMMA=   2.1732
 10.0926  5.8837  2.5631  2.2397  2.2397  1.4787  1.4787  1.0413  1.0413  1.0056
  0.8846  0.7628  0.6712  0.6248  0.5898

 Free energy of the ion-electron system (eV)
  ---------------------------------------------------
  alpha Z        PSCENC =         0.14436548
  Ewald energy   TEWEN  =       344.13789722
  -Hartree energ DENC   =      -315.29555451
  -exchange      EXHF   =         0.00000000
  -V(xc)+E(xc)   XCENC  =        23.26616990
  PAW double counting   =       204.31028960     -204.68921440
  entropy T*S    EENTRO =        -0.22567584
  eigenvalues    EBANDS =      -152.19420071
  atomic energy  EATOM  =        99.56620307
  Solvation  Ediel_sol  =         0.00000000
  ---------------------------------------------------
  free energy    TOTEN  =        -0.97972020 eV

  energy without entropy =       -0.75404436  energy(sigma->0) =       -0.86688228


--------------------------------------------------------------------------------------------------------




--------------------------------------- Iteration      1(  21)  ---------------------------------------


    POTLOK:  cpu time    0.2277: real time    0.2276
    SETDIJ:  cpu time    0.0101: real time    0.0101
     EDDAV:  cpu time    0.1077: real time    0.1234
       DOS:  cpu time    0.0002: real time    0.0002
    CHARGE:  cpu time    0.0663: real time    0.0662
    MIXING:  cpu time    0.0119: real time    0.0119
    --------------------------------------------
      LOOP:  cpu time    0.4239: real time    0.4394

 eigenvalue-minimisations  :    48
 total energy-change (2. order) : 0.2519664E-04  (-0.4486207E-05)
 number of electron       8.0000241 magnetization       0.0000000
 augmentation part        0.2217245 magnetization       0.0000000

 Broyden mixing:
  rms(total) = 0.97853E-03    rms(broyden)= 0.97837E-03
  rms(prec ) = 0.16093E-02
  weight for this iteration     100.00

 eigenvalues of (default mixing * dielectric matrix)
  average eigenvalue GAMMA=   2.2104
 10.3151  6.4225  2.7768  2.7768  2.4971  1.4777  1.4777  1.0913  1.0913  0.9977
  0.9204  0.9204  0.7433  0.6548  0.6229  0.5810

 Free energy of the ion-electron system (eV)
  ---------------------------------------------------
  alpha Z        PSCENC =         0.14436548
  Ewald energy   TEWEN  =       344.13789722
  -Hartree energ DENC   =      -315.17728848
  -exchange      EXHF   =         0.00000000
  -V(xc)+E(xc)   XCENC  =        23.26029630
  PAW double counting   =       204.20254208     -204.58140066
  entropy T*S    EENTRO =        -0.22567584
  eigenvalues    EBANDS =      -152.30663417
  atomic energy  EATOM  =        99.56620307
  Solvation  Ediel_sol  =         0.00000000
  ---------------------------------------------------
  free energy    TOTEN  =        -0.97969500 eV

  energy without entropy =       -0.75401916  energy(sigma->0) =       -0.86685708


--------------------------------------------------------------------------------------------------------




--------------------------------------- Iteration      1(  22)  ---------------------------------------


    POTLOK:  cpu time    0.2296: real time    0.2295
    SETDIJ:  cpu time    0.0101: real time    0.0101
     EDDAV:  cpu time    0.1083: real time    0.1082
       DOS:  cpu time    0.0003: real time    0.0003
    CHARGE:  cpu time    0.0674: real time    0.0673
    MIXING:  cpu time    0.0162: real time    0.0162
    --------------------------------------------
      LOOP:  cpu time    0.4318: real time    0.4317

 eigenvalue-minimisations  :    48
 total energy-change (2. order) : 0.9061002E-05  (-0.3574003E-05)
 number of electron       8.0000241 magnetization       0.0000000
 augmentation part        0.2217494 magnetization       0.0000001

 Broyden mixing:
  rms(total) = 0.18643E-03    rms(broyden)= 0.18517E-03
  rms(prec ) = 0.32488E-03
  weight for this iteration     100.00

 eigenvalues of (default mixing * dielectric matrix)
  average eigenvalue GAMMA=   2.2023
 10.3660  6.8397  2.9892  2.9892  2.4988  1.4777  1.4777  1.3050  1.3050  0.9985
  0.9471  0.9471  0.7415  0.6947  0.6607  0.6239  0.5771

 Free energy of the ion-electron system (eV)
  ---------------------------------------------------
  alpha Z        PSCENC =         0.14436548
  Ewald energy   TEWEN  =       344.13789722
  -Hartree energ DENC   =      -315.07223633
  -exchange      EXHF   =         0.00000000
  -V(xc)+E(xc)   XCENC  =        23.25562847
  PAW double counting   =       204.13544293     -204.51428360
  entropy T*S    EENTRO =        -0.22567584
  eigenvalues    EBANDS =      -152.40702733
  atomic energy  EATOM  =        99.56620307
  Solvation  Ediel_sol  =         0.00000000
  ---------------------------------------------------
  free energy    TOTEN  =        -0.97968594 eV

  energy without entropy =       -0.75401010  energy(sigma->0) =       -0.86684802


--------------------------------------------------------------------------------------------------------




--------------------------------------- Iteration      1(  23)  ---------------------------------------


    POTLOK:  cpu time    0.2338: real time    0.2337
    SETDIJ:  cpu time    0.0102: real time    0.0102
     EDDAV:  cpu time    0.1087: real time    0.1087
       DOS:  cpu time    0.0003: real time    0.0003
    CHARGE:  cpu time    0.0667: real time    0.0667
    MIXING:  cpu time    0.0141: real time    0.0141
    --------------------------------------------
      LOOP:  cpu time    0.4337: real time    0.4336

 eigenvalue-minimisations  :    48
 total energy-change (2. order) :-0.3064462E-05  (-0.1936448E-06)
 number of electron       8.0000241 magnetization       0.0000000
 augmentation part        0.2217504 magnetization      -0.0000000

 Broyden mixing:
  rms(total) = 0.12899E-03    rms(broyden)= 0.12891E-03
  rms(prec ) = 0.22617E-03
  weight for this iteration     100.00

 eigenvalues of (default mixing * dielectric matrix)
  average eigenvalue GAMMA=   2.1624
 10.6305  6.6093  3.1315  3.1315  2.4922  1.4696  1.4696  1.4754  1.4754  0.9988
  0.9688  0.9688  0.7661  0.7661  0.7227  0.6242  0.6485  0.5745

 Free energy of the ion-electron system (eV)
  ---------------------------------------------------
  alpha Z        PSCENC =         0.14436548
  Ewald energy   TEWEN  =       344.13789722
  -Hartree energ DENC   =      -315.06243301
  -exchange      EXHF   =         0.00000000
  -V(xc)+E(xc)   XCENC  =        23.25533095
  PAW double counting   =       204.13624171     -204.51509352
  entropy T*S    EENTRO =        -0.22567584
  eigenvalues    EBANDS =      -152.41652506
  atomic energy  EATOM  =        99.56620307
  Solvation  Ediel_sol  =         0.00000000
  ---------------------------------------------------
  free energy    TOTEN  =        -0.97968900 eV

  energy without entropy =       -0.75401316  energy(sigma->0) =       -0.86685108


--------------------------------------------------------------------------------------------------------




--------------------------------------- Iteration      1(  24)  ---------------------------------------


    POTLOK:  cpu time    0.2317: real time    0.2316
    SETDIJ:  cpu time    0.0101: real time    0.0101
     EDDAV:  cpu time    0.1134: real time    0.1134
       DOS:  cpu time    0.0003: real time    0.0003
    --------------------------------------------
      LOOP:  cpu time    0.3554: real time    0.3553

 eigenvalue-minimisations  :    52
 total energy-change (2. order) :-0.5091564E-06  (-0.5738548E-07)
 number of electron       8.0000241 magnetization       0.0000000
 augmentation part        0.2217504 magnetization      -0.0000000

 Free energy of the ion-electron system (eV)
  ---------------------------------------------------
  alpha Z        PSCENC =         0.14436548
  Ewald energy   TEWEN  =       344.13789722
  -Hartree energ DENC   =      -315.04939265
  -exchange      EXHF   =         0.00000000
  -V(xc)+E(xc)   XCENC  =        23.25483630
  PAW double counting   =       204.13281897     -204.51167170
  entropy T*S    EENTRO =        -0.22567584
  eigenvalues    EBANDS =      -152.42907036
  atomic energy  EATOM  =        99.56620307
  Solvation  Ediel_sol  =         0.00000000
  ---------------------------------------------------
  free energy    TOTEN  =        -0.97968951 eV

  energy without entropy =       -0.75401367  energy(sigma->0) =       -0.86685159


--------------------------------------------------------------------------------------------------------




 average (electrostatic) potential at core
  the test charge radii are     0.5201
  (the norm of the test charge is              1.0001)
       1 -56.4913       2 -56.4913       3 -56.4913       4 -56.4913       5 -56.4913
       6 -56.4913       7 -56.4913       8 -56.4913
 
 
 
 E-fermi :  -3.3973     XC(G=0):  -1.0475     alpha+bet : -0.2045


 spin component 1

 k-point     1 :       0.0000    0.0000    0.0000
  band No.  band energies     occupation 
      1     -28.6140      1.00000
      2     -22.1016      1.00000
      3     -22.1016      1.00000
      4      -3.3973      0.50000
      5      -3.3973      0.50000
      6      -2.5609      0.00000
      7      -2.5609      0.00000
      8      -2.1650      0.00000
      9       0.1549      0.00000
     10       0.1998      0.00000
     11       0.3502      0.00000
     12       0.3502      0.00000

 spin component 2

 k-point     1 :       0.0000    0.0000    0.0000
  band No.  band energies     occupation 
      1     -28.6140      1.00000
      2     -22.1016      1.00000
      3     -22.1016      1.00000
      4      -3.3973      0.50000
      5      -3.3973      0.50000
      6      -2.5609      0.00000
      7      -2.5609      0.00000
      8      -2.1650      0.00000
      9       0.1501      0.00000
     10       0.1947      0.00000
     11       0.3496      0.00000
     12       0.3496      0.00000


--------------------------------------------------------------------------------------------------------


 soft charge-density along one line, spin component           1
         0         1         2         3         4         5         6         7         8         9
 total charge-density along one line
 
 soft charge-density along one line, spin component           2
         0         1         2         3         4         5         6         7         8         9
 total charge-density along one line
 
 pseudopotential strength for first ion, spin component:           1
 -2.536  -4.407  -0.000  -0.000   0.000
 -4.407  -7.572  -0.000  -0.000   0.000
 -0.000  -0.000  -0.293   0.000  -0.000
 -0.000  -0.000   0.000  -0.263   0.000
  0.000   0.000  -0.000   0.000  -0.293
 pseudopotential strength for first ion, spin component:           2
 -2.536  -4.407  -0.000  -0.000   0.000
 -4.407  -7.572  -0.000  -0.000   0.000
 -0.000  -0.000  -0.293   0.000  -0.000
 -0.000  -0.000   0.000  -0.263   0.000
  0.000   0.000  -0.000   0.000  -0.293
 total augmentation occupancy for first ion, spin component:           1
  3.831  -0.554  -0.000   0.000   0.000
 -0.554   0.099   0.000   0.000   0.000
  0.000   0.000   0.019   0.000   0.000
  0.000   0.000   0.000   0.149   0.000
  0.000   0.000   0.000   0.000   0.019
 total augmentation occupancy for first ion, spin component:           2
 -0.000   0.000   0.000  -0.000   0.000
  0.000  -0.000  -0.000   0.000   0.000
 -0.000   0.000   0.000   0.000   0.000
 -0.000   0.000   0.000  -0.000   0.000
  0.000  -0.000   0.000   0.000   0.000


------------------------ aborting loop because EDIFF is reached ----------------------------------------


    CHARGE:  cpu time    0.0616: real time    0.0616
    FORLOC:  cpu time    0.0098: real time    0.0097
    FORNL :  cpu time    0.0221: real time    0.0221
    STRESS:  cpu time    0.0826: real time    0.0826
    FORHAR:  cpu time    0.0227: real time    0.0227
    MIXING:  cpu time    0.0142: real time    0.0142
    OFIELD:  cpu time    0.0001: real time    0.0001

  FORCE on cell =-STRESS in cart. coord.  units (eV):
  Direction    XX          YY          ZZ          XY          YZ          ZX
  --------------------------------------------------------------------------------------
  Alpha Z     0.14437     0.14437     0.14437
  Ewald     -95.99859   -95.99859   536.13502    -0.00000     0.00000    -0.00000
  Hartree     0.00254     0.00254   315.03188    -0.00000    -0.00000    -0.00000
  E(xc)     -26.10098   -26.10098   -23.26154     0.00000     0.00000    -0.00000
  Local      34.98121    34.98121  -781.98499     0.00000    -0.00000     0.00000
  n-local   -27.71699   -27.71699   -37.89047     0.00000    -0.00000    -0.00000
  augment     1.76184     1.76184     0.20868     0.00000     0.00000     0.00000
  Kinetic   110.79010   110.79010    50.27215    -0.00000    -0.00000     0.00000
  Fock        0.00000     0.00000     0.00000     0.00000     0.00000     0.00000
  -------------------------------------------------------------------------------------
  Total      -2.13651    -2.13651    58.65508    -0.00000    -0.00000    -0.00000
  in kB      -3.16951    -3.16951    87.01467    -0.00000    -0.00000    -0.00000
  external pressure =       26.89 kB  Pullay stress =        0.00 kB


 VOLUME and BASIS-vectors are now :
 -----------------------------------------------------------------------------
  energy-cutoff  :      300.00
  volume of cell :     1080.00
      direct lattice vectors                 reciprocal lattice vectors
    15.000000000  0.000000000  0.000000000     0.066666667 -0.000000000  0.000000000
     0.000000000 15.000000000  0.000000000     0.000000000  0.066666667  0.000000000
     0.000000000  0.000000000  4.800000000    -0.000000000 -0.000000000  0.208333333

  length of vectors
    15.000000000 15.000000000  4.800000000     0.066666667  0.066666667  0.208333333


 FORCES acting on ions
    electron-ion (+dipol)            ewald-force                    non-local-force                 convergence-correction
 -----------------------------------------------------------------------------------------------
   0.569E-16 -.195E-16 0.826E-15   0.122E-19 0.635E-19 -.711E-14   0.126E-24 0.000E+00 0.969E-26   -.184E-15 -.705E-15 0.422E-16
   0.553E-16 -.280E-16 -.388E-15   0.533E-19 0.597E-19 -.178E-14   -.458E-25 0.233E-24 -.162E-26   -.176E-15 -.733E-15 0.282E-15
   0.638E-16 -.184E-16 -.234E-15   0.244E-19 0.345E-19 -.888E-15   -.229E-24 0.000E+00 0.000E+00   -.191E-15 -.723E-15 0.395E-15
   0.507E-16 -.222E-16 0.579E-16   0.412E-19 0.216E-19 0.120E-14   0.461E-25 0.840E-25 0.162E-26   -.183E-15 -.731E-15 0.136E-16
   0.556E-16 -.108E-16 0.733E-15   -.471E-19 -.488E-20 0.133E-14   -.184E-24 0.000E+00 0.485E-26   -.193E-15 -.715E-15 -.107E-15
   0.401E-16 -.152E-16 0.126E-15   -.303E-19 -.178E-19 0.000E+00   0.538E-26 0.711E-25 0.565E-26   -.177E-15 -.727E-15 -.395E-15
   0.535E-16 -.285E-17 0.170E-16   -.592E-19 -.430E-19 0.000E+00   -.228E-25 0.000E+00 0.145E-25   -.183E-15 -.706E-15 -.287E-15
   0.540E-16 -.888E-17 -.156E-14   -.181E-19 -.468E-19 0.708E-14   0.461E-25 0.194E-25 0.646E-26   -.171E-15 -.717E-15 -.959E-16
 -----------------------------------------------------------------------------------------------
   0.430E-15 -.126E-15 -.421E-15   -.238E-19 0.668E-19 -.157E-15   -.258E-24 0.407E-24 0.412E-25   -.146E-14 -.576E-14 -.152E-15
 
 
 POSITION                                       TOTAL-FORCE (eV/Angst)
 -----------------------------------------------------------------------------------
      0.00000      0.00000      0.00000        -0.000000     -0.000000      0.000000
      0.00000      0.00000      0.60000         0.000000      0.000000      0.000000
      0.00000      0.00000      1.20000        -0.000000     -0.000000     -0.000000
      0.00000      0.00000      1.80000        -0.000000     -0.000000     -0.000000
      0.00000      0.00000      2.40000         0.000000     -0.000000      0.000000
      0.00000      0.00000      3.00000         0.000000      0.000000     -0.000000
      0.00000      0.00000      3.60000        -0.000000      0.000000      0.000000
      0.00000      0.00000      4.20000        -0.000000      0.000000     -0.000000
 -----------------------------------------------------------------------------------
    total drift:                               -0.000000     -0.000000     -0.000000


--------------------------------------------------------------------------------------------------------



  FREE ENERGIE OF THE ION-ELECTRON SYSTEM (eV)
  ---------------------------------------------------
  free  energy   TOTEN  =        -0.97968951 eV

  energy  without entropy=       -0.75401367  energy(sigma->0) =       -0.86685159
 


--------------------------------------------------------------------------------------------------------


    POTLOK:  cpu time    0.2386: real time    0.2386


--------------------------------------------------------------------------------------------------------


     LOOP+:  cpu time    9.4802: real time    9.5074
    4ORBIT:  cpu time    0.0000: real time    0.0000

 total amount of memory used by VASP MPI-rank0    58449. kBytes
=======================================================================

   base      :      30000. kBytes
   nonl-proj :       2134. kBytes
   fftplans  :       6134. kBytes
   grid      :      18939. kBytes
   one-center:         19. kBytes
   wavefun   :       1223. kBytes
 
  
  
 General timing and accounting informations for this job:
 ========================================================
  
                  Total CPU time used (sec):       10.042
                            User time (sec):        9.585
                          System time (sec):        0.457
                         Elapsed time (sec):       10.410
  
                   Maximum memory used (kb):      197844.
                   Average memory used (kb):           0.
  
                          Minor page faults:       147084
                          Major page faults:            0
                 Voluntary context switches:          942
