<?xml version="1.0" encoding="ISO-8859-1"?>
<modeling>
 <generator>
  <i name="program" type="string">vasp </i>
  <i name="version" type="string">5.4.4.18Apr17-6-g9f103f2a35  </i>
  <i name="subversion" type="string">(build Aug 24 2024 05:40:03) complex            parallel </i>
  <i name="platform" type="string">IFC22_IMPI </i>
  <i name="date" type="string">2024 11 22 </i>
  <i name="time" type="string">21:38:05 </i>
 </generator>
 <incar>
  <i type="string" name="PREC">normal</i>
  <i type="int" name="ISPIN">     2</i>
  <i type="int" name="ICHARG">     2</i>
  <i type="int" name="NELM">   100</i>
  <i name="EDIFF">      0.00000100</i>
  <i type="int" name="NSW">     0</i>
  <i name="ENCUT">    300.00000000</i>
  <i name="NUPDOWN">      0.00000000</i>
  <i type="int" name="ISMEAR">     0</i>
  <i name="SIGMA">      0.20000000</i>
  <i type="logical" name="LWAVE"> F  </i>
  <i type="logical" name="LCHARG"> F  </i>
  <v type="int" name="KPOINT_BSE">    -1     0     0     0</v>
  <i type="int" name="NELM">   100</i>
 </incar>
 <structure name="primitive_cell" >
  <crystal>
   <varray name="basis" >
    <v>      15.00000000       0.00000000       0.00000000 </v>
    <v>       0.00000000      15.00000000       0.00000000 </v>
    <v>       0.00000000       0.00000000       0.60000000 </v>
   </varray>
   <i name="volume">    135.00000000 </i>
   <varray name="rec_basis" >
    <v>       0.06666667      -0.00000000       0.00000000 </v>
    <v>       0.00000000       0.06666667       0.00000000 </v>
    <v>      -0.00000000      -0.00000000       1.66666667 </v>
   </varray>
  </crystal>
  <varray name="positions" >
   <v>       0.00000000       0.00000000       0.00000000 </v>
  </varray>
 </structure>
 <varray name="primitive_index" >
  <v type="int" >        1 </v>
 </varray>
 <kpoints>
  <generation param="Gamma">
   <v type="int" name="divisions">       1        1        1 </v>
   <v name="usershift">      0.00000000       0.00000000       0.00000000 </v>
   <v name="genvec1">      1.00000000      -0.00000000       0.00000000 </v>
   <v name="genvec2">      0.00000000       1.00000000       0.00000000 </v>
   <v name="genvec3">      0.00000000       0.00000000       1.00000000 </v>
   <v name="shift">      0.00000000       0.00000000       0.00000000 </v>
  </generation>
  <varray name="kpointlist" >
   <v>       0.00000000       0.00000000       0.00000000 </v>
  </varray>
  <varray name="weights" >
   <v>       1.00000000 </v>
  </varray>
 </kpoints>
 <parameters>
  <separator name="general" >
   <i type="string" name="SYSTEM">unknown system</i>
   <i type="logical" name="LCOMPAT"> F  </i>
  </separator>
  <separator name="electronic" >
   <i type="string" name="PREC">normal</i>
   <i name="ENMAX">    300.00000000</i>
   <i name="ENAUG">    400.00000000</i>
   <i name="EDIFF">      0.00000100</i>
   <i type="int" name="IALGO">    38</i>
   <i type="int" name="IWAVPR">    10</i>
   <i type="int" name="NBANDS">    12</i>
   <i name="NELECT">      8.00000000</i>
   <i type="int" name="TURBO">     0</i>
   <i type="int" name="IRESTART">     0</i>
   <i type="int" name="NREBOOT">     0</i>
   <i type="int" name="NMIN">     0</i>
   <i name="EREF">      0.00000000</i>
   <separator name="electronic smearing" >
    <i type="int" name="ISMEAR">     0</i>
    <i name="SIGMA">      0.20000000</i>
    <i name="KSPACING">      0.50000000</i>
    <i type="logical" name="KGAMMA"> T  </i>
   </separator>
   <separator name="electronic projectors" >
    <i type="logical" name="LREAL"> F  </i>
    <v name="ROPT">      0.00000000</v>
    <i type="int" name="LMAXPAW">  -100</i>
    <i type="int" name="LMAXMIX">     2</i>
    <i type="logical" name="NLSPLINE"> F  </i>
   </separator>
   <separator name="electronic startup" >
    <i type="int" name="ISTART">     0</i>
    <i type="int" name="ICHARG">     2</i>
    <i type="int" name="INIWAV">     1</i>
   </separator>
   <separator name="electronic spin" >
    <i type="int" name="ISPIN">     2</i>
    <i type="logical" name="LNONCOLLINEAR"> F  </i>
    <v name="MAGMOM">      0.00000000      0.00000000      0.00000000      0.00000000      0.00000000      0.00000000      0.00000000      0.00000000</v>
    <i name="NUPDOWN">      0.00000000</i>
    <i type="logical" name="LSORBIT"> F  </i>
    <v name="SAXIS">      0.00000000      0.00000000      1.00000000</v>
    <i type="logical" name="LSPIRAL"> F  </i>
    <v name="QSPIRAL">      0.00000000      0.00000000      0.00000000</v>
    <i type="logical" name="LZEROZ"> F  </i>
   </separator>
   <separator name="electronic exchange-correlation" >
    <i type="logical" name="LASPH"> F  </i>
    <i type="logical" name="LMETAGGA"> F  </i>
   </separator>
   <separator name="electronic convergence" >
    <i type="int" name="NELM">   100</i>
    <i type="int" name="NELMDL">    -5</i>
    <i type="int" name="NELMIN">     2</i>
    <i name="ENINI">    300.00000000</i>
    <separator name="electronic convergence detail" >
     <i type="logical" name="LDIAG"> T  </i>
     <i type="logical" name="LSUBROT"> F  </i>
     <i name="WEIMIN">      0.00000000</i>
     <i name="EBREAK">      0.00000002</i>
     <i name="DEPER">      0.30000000</i>
     <i type="int" name="NRMM">     4</i>
     <i name="TIME">      0.40000000</i>
    </separator>
   </separator>
   <separator name="electronic mixer" >
    <i name="AMIX">      0.40000000</i>
    <i name="BMIX">      1.00000000</i>
    <i name="AMIN">      0.10000000</i>
    <i name="AMIX_MAG">      1.60000000</i>
    <i name="BMIX_MAG">      1.00000000</i>
    <separator name="electronic mixer details" >
     <i type="int" name="IMIX">     4</i>
     <i type="logical" name="MIXFIRST"> F  </i>
     <i type="int" name="MAXMIX">   -45</i>
     <i name="WC">    100.00000000</i>
     <i type="int" name="INIMIX">     1</i>
     <i type="int" name="MIXPRE">     1</i>
     <i type="int" name="MREMOVE">     5</i>
    </separator>
   </separator>
   <separator name="electronic dipolcorrection" >
    <i type="logical" name="LDIPOL"> F  </i>
    <i type="logical" name="LMONO"> F  </i>
    <i type="int" name="IDIPOL">     0</i>
    <i name="EPSILON">      1.00000000</i>
    <v name="DIPOL">   -100.00000000   -100.00000000   -100.00000000</v>
    <i name="EFIELD">      0.00000000</i>
   </separator>
  </separator>
  <separator name="grids" >
   <i type="int" name="NGX">    64</i>
   <i type="int" name="NGY">    64</i>
   <i type="int" name="NGZ">    20</i>
   <i type="int" name="NGXF">   128</i>
   <i type="int" name="NGYF">   128</i>
   <i type="int" name="NGZF">    40</i>
   <i type="logical" name="ADDGRID"> F  </i>
  </separator>
  <separator name="ionic" >
   <i type="int" name="NSW">     0</i>
   <i type="int" name="IBRION">    -1</i>
   <i type="int" name="MDALGO">     0</i>
   <i type="int" name="ISIF">     2</i>
   <i name="PSTRESS">      0.00000000</i>
   <i name="EDIFFG">      0.00001000</i>
   <i type="int" name="NFREE">     0</i>
   <i name="POTIM">      0.50000000</i>
   <i name="SMASS">     -3.00000000</i>
   <i name="SCALEE">      1.00000000</i>
  </separator>
  <separator name="ionic md" >
   <i name="TEBEG">      0.00010000</i>
   <i name="TEEND">      0.00010000</i>
   <i type="int" name="NBLOCK">     1</i>
   <i type="int" name="KBLOCK">     1</i>
   <i type="int" name="NPACO">   256</i>
   <i name="APACO">     16.00000000</i>
  </separator>
  <separator name="symmetry" >
   <i type="int" name="ISYM">     2</i>
   <i name="SYMPREC">      0.00001000</i>
  </separator>
  <separator name="dos" >
   <i type="int" name="LORBIT">     0</i>
   <v name="RWIGS">     -1.00000000</v>
   <i type="int" name="NEDOS">   301</i>
   <i name="EMIN">     10.00000000</i>
   <i name="EMAX">    -10.00000000</i>
   <i name="EFERMI">      0.00000000</i>
  </separator>
  <separator name="writing" >
   <i type="int" name="NWRITE">     2</i>
   <i type="logical" name="LWAVE"> F  </i>
   <i type="logical" name="LDOWNSAMPLE"> F  </i>
   <i type="logical" name="LCHARG"> F  </i>
   <i type="logical" name="LPARD"> F  </i>
   <i type="logical" name="LVTOT"> F  </i>
   <i type="logical" name="LVHAR"> F  </i>
   <i type="logical" name="LELF"> F  </i>
   <i type="logical" name="LOPTICS"> F  </i>
   <v name="STM">      0.00000000      0.00000000      0.00000000      0.00000000      0.00000000      0.00000000      0.00000000</v>
  </separator>
  <separator name="performance" >
   <i type="int" name="NPAR">     4</i>
   <i type="int" name="NSIM">     4</i>
   <i type="int" name="NBLK">    -1</i>
   <i type="logical" name="LPLANE"> T  </i>
   <i type="logical" name="LSCALAPACK"> T  </i>
   <i type="logical" name="LSCAAWARE"> F  </i>
   <i type="logical" name="LSCALU"> F  </i>
   <i type="logical" name="LASYNC"> F  </i>
   <i type="logical" name="LORBITALREAL"> F  </i>
  </separator>
  <separator name="miscellaneous" >
   <i type="int" name="IDIOT">     3</i>
   <i type="int" name="ISPECIAL">     0</i>
   <i type="logical" name="LMUSIC"> F  </i>
   <v name="POMASS">      1.00000000</v>
   <v name="DARWINR">      0.00000000</v>
   <v name="DARWINV">      1.00000000</v>
   <i type="logical" name="LCORR"> T  </i>
  </separator>
  <i type="logical" name="GGA_COMPAT"> T  </i>
  <i type="logical" name="LBERRY"> F  </i>
  <i type="int" name="ICORELEVEL">     0</i>
  <i type="logical" name="LDAU"> F  </i>
  <i type="int" name="I_CONSTRAINED_M">     0</i>
  <separator name="electronic exchange-correlation" >
   <i type="string" name="GGA">--</i>
   <i type="int" name="VOSKOWN">     0</i>
   <i type="logical" name="LHFCALC"> F  </i>
   <i type="string" name="PRECFOCK"></i>
   <i type="logical" name="LSYMGRAD"> F  </i>
   <i type="logical" name="LHFONE"> F  </i>
   <i type="logical" name="LRHFCALC"> F  </i>
   <i type="logical" name="LTHOMAS"> F  </i>
   <i type="logical" name="LMODELHF"> F  </i>
   <i name="ENCUT4O">     -1.00000000</i>
   <i type="int" name="EXXOEP">     0</i>
   <i type="int" name="FOURORBIT">     0</i>
   <i name="AEXX">      0.00000000</i>
   <i name="HFALPHA">      0.00000000</i>
   <i name="MCALPHA">      0.00000000</i>
   <i name="ALDAX">      1.00000000</i>
   <i name="AGGAX">      1.00000000</i>
   <i name="ALDAC">      1.00000000</i>
   <i name="AGGAC">      1.00000000</i>
   <i type="int" name="NKREDX">     1</i>
   <i type="int" name="NKREDY">     1</i>
   <i type="int" name="NKREDZ">     1</i>
   <i type="logical" name="SHIFTRED"> F  </i>
   <i type="logical" name="ODDONLY"> F  </i>
   <i type="logical" name="EVENONLY"> F  </i>
   <i type="int" name="LMAXFOCK">     0</i>
   <i type="int" name="NMAXFOCKAE">     0</i>
   <i type="logical" name="LFOCKAEDFT"> F  </i>
   <i name="HFSCREEN">      0.00000000</i>
   <i name="HFSCREENC">      0.00000000</i>
   <i type="int" name="NBANDSGWLOW">     0</i>
  </separator>
  <separator name="vdW DFT" >
   <i type="logical" name="LUSE_VDW"> F  </i>
   <i name="Zab_VDW">     -0.84910000</i>
   <i name="PARAM1">      0.12340000</i>
   <i name="PARAM2">      1.00000000</i>
   <i name="PARAM3">      0.00000000</i>
  </separator>
  <separator name="model GW" >
   <i type="int" name="MODEL_GW">     0</i>
   <i name="MODEL_EPS0">     81.00000000</i>
   <i name="MODEL_ALPHA">      1.00000000</i>
  </separator>
  <separator name="linear response parameters" >
   <i type="logical" name="LEPSILON"> F  </i>
   <i type="logical" name="LRPA"> F  </i>
   <i type="logical" name="LNABLA"> F  </i>
   <i type="logical" name="LVEL"> F  </i>
   <i type="int" name="KINTER">     0</i>
   <i name="CSHIFT">      0.10000000</i>
   <i name="OMEGAMAX">     -1.00000000</i>
   <i name="DEG_THRESHOLD">      0.00200000</i>
   <i name="RTIME">     -0.10000000</i>
   <i name="WPLASMAI">      0.00000000</i>
   <v name="DFIELD">      0.00000000      0.00000000      0.00000000</v>
   <v name="WPLASMA">      0.00000000      0.00000000      0.00000000      0.00000000      0.00000000      0.00000000      0.00000000      0.00000000      0.00000000</v>
  </separator>
  <separator name="orbital magnetization" >
   <i type="logical" name="NUCIND"> F  </i>
   <v name="MAGPOS">      0.00000000      0.00000000      0.00000000</v>
   <i type="logical" name="LNICSALL"> T  </i>
   <i type="logical" name="ORBITALMAG"> F  </i>
   <i type="logical" name="LMAGBLOCH"> F  </i>
   <i type="logical" name="LCHIMAG"> F  </i>
   <i type="logical" name="LGAUGE"> T  </i>
   <i type="int" name="MAGATOM">     0</i>
   <v name="MAGDIPOL">      0.00000000      0.00000000      0.00000000</v>
   <v name="AVECCONST">      0.00000000      0.00000000      0.00000000</v>
  </separator>
  <separator name="response functions" >
   <i type="logical" name="LADDER"> F  </i>
   <i type="logical" name="LRPAFORCE"> F  </i>
   <i type="logical" name="LFXC"> F  </i>
   <i type="logical" name="LHARTREE"> T  </i>
   <i type="int" name="IBSE">     0</i>
   <v type="int" name="KPOINT">    -1     0     0     0</v>
   <i type="logical" name="LTCTE"> F  </i>
   <i type="logical" name="LTETE"> F  </i>
   <i type="logical" name="LTRIPLET"> F  </i>
   <i type="logical" name="LFXCEPS"> F  </i>
   <i type="logical" name="LFXHEG"> F  </i>
   <i type="int" name="NATURALO">     2</i>
   <i type="logical" name="L2ORDER"> F  </i>
   <i type="logical" name="LMP2LT"> F  </i>
   <i type="logical" name="LUSEW"> F  </i>
   <i name="ENCUTGW">     -2.00000000</i>
   <i name="ENCUTGWSOFT">     -2.00000000</i>
   <i name="ENCUTLF">     -1.00000000</i>
   <i type="int" name="LMAXMP2">    -1</i>
   <i name="SCISSOR">      0.00000000</i>
   <i type="int" name="NOMEGA">     0</i>
   <i type="int" name="NOMEGAR">     0</i>
   <i type="int" name="NBANDSGW">    -1</i>
   <i type="int" name="NBANDSO">    -1</i>
   <i type="int" name="NBANDSV">    -1</i>
   <i type="int" name="NELM">   100</i>
   <i type="int" name="NELMHF">     1</i>
   <i type="int" name="DIM">     3</i>
   <i type="int" name="ANTIRES">     0</i>
   <i name="OMEGAMAX">    -30.00000000</i>
   <i name="OMEGAMIN">    -30.00000000</i>
   <i name="OMEGATL">   -200.00000000</i>
   <i type="int" name="OMEGAGRID">   140</i>
   <i name="CSHIFT">     -0.10000000</i>
   <i type="logical" name="SELFENERGY"> F  </i>
   <i type="logical" name="LSPECTRAL"> F  </i>
   <i type="logical" name="LSPECTRALGW"> F  </i>
   <i type="logical" name="LSINGLES"> F  </i>
   <i type="logical" name="LFERMIGW"> F  </i>
   <i type="logical" name="ODDONLYGW"> F  </i>
   <i type="logical" name="EVENONLYGW"> F  </i>
   <i type="int" name="NKREDLFX">     1</i>
   <i type="int" name="NKREDLFY">     1</i>
   <i type="int" name="NKREDLFZ">     1</i>
   <i type="int" name="MAXMEM">  2800</i>
   <i type="int" name="TELESCOPE">     0</i>
   <i type="int" name="TAUPAR">     1</i>
   <i type="int" name="OMEGAPAR">    -1</i>
   <i name="LAMBDA">      1.00000000</i>
  </separator>
  <separator name="External order field" >
   <i name="OFIELD_KAPPA">      0.00000000</i>
   <v name="OFIELD_K">      0.00000000      0.00000000      0.00000000</v>
   <i name="OFIELD_Q6_NEAR">      0.00000000</i>
   <i name="OFIELD_Q6_FAR">      0.00000000</i>
   <i name="OFIELD_A">      0.00000000</i>
  </separator>
 </parameters>
 <atominfo>
  <atoms>       8 </atoms>
  <types>       1 </types>
  <array name="atoms" >
   <dimension dim="1">ion</dimension>
   <field type="string">element</field>
   <field type="int">atomtype</field>
   <set>
    <rc><c>H </c><c>   1</c></rc>
    <rc><c>H </c><c>   1</c></rc>
    <rc><c>H </c><c>   1</c></rc>
    <rc><c>H </c><c>   1</c></rc>
    <rc><c>H </c><c>   1</c></rc>
    <rc><c>H </c><c>   1</c></rc>
    <rc><c>H </c><c>   1</c></rc>
    <rc><c>H </c><c>   1</c></rc>
   </set>
  </array>
  <array name="atomtypes" >
   <dimension dim="1">type</dimension>
   <field type="int">atomspertype</field>
   <field type="string">element</field>
   <field>mass</field>
   <field>valence</field>
   <field type="string">pseudopotential</field>
   <set>
    <rc><c>   8</c><c>H </c><c>      1.00000000</c><c>      1.00000000</c><c>  PAW_PBE H 15Jun2001                   </c></rc>
   </set>
  </array>
 </atominfo>
 <structure name="initialpos" >
  <crystal>
   <varray name="basis" >
    <v>      15.00000000       0.00000000       0.00000000 </v>
    <v>       0.00000000      15.00000000       0.00000000 </v>
    <v>       0.00000000       0.00000000       4.80000000 </v>
   </varray>
   <i name="volume">   1080.00000000 </i>
   <varray name="rec_basis" >
    <v>       0.06666667      -0.00000000       0.00000000 </v>
    <v>       0.00000000       0.06666667       0.00000000 </v>
    <v>      -0.00000000      -0.00000000       0.20833333 </v>
   </varray>
  </crystal>
  <varray name="positions" >
   <v>       0.00000000       0.00000000       0.00000000 </v>
   <v>       0.00000000       0.00000000       0.12500000 </v>
   <v>       0.00000000       0.00000000       0.25000000 </v>
   <v>       0.00000000       0.00000000       0.37500000 </v>
   <v>       0.00000000       0.00000000       0.50000000 </v>
   <v>       0.00000000       0.00000000       0.62500000 </v>
   <v>       0.00000000       0.00000000       0.75000000 </v>
   <v>       0.00000000       0.00000000       0.87500000 </v>
  </varray>
 </structure>
 <calculation>
  <scstep>
   <time name="dav">    0.14    0.14</time>
   <time name="total">    0.38    0.38</time>
   <energy>
    <i name="alphaZ">      0.14436548 </i>
    <i name="ewald">    344.13789722 </i>
    <i name="hartreedc">   -310.91815961 </i>
    <i name="XCdc">     22.03686006 </i>
    <i name="pawpsdc">     17.07221949 </i>
    <i name="pawaedc">    -17.14324176 </i>
    <i name="eentropy">     -0.08996252 </i>
    <i name="bandstr">   -131.47478101 </i>
    <i name="atom">     99.56620307 </i>
    <i name="e_fr_energy">     23.33140042 </i>
    <i name="e_wo_entrp">     23.42136293 </i>
    <i name="e_0_energy">     23.37638168 </i>
   </energy>
  </scstep>
  <scstep>
   <time name="dav">    0.11    0.11</time>
   <time name="total">    0.11    0.11</time>
   <energy>
    <i name="e_fr_energy">     -0.39958957 </i>
    <i name="e_wo_entrp">     -0.25610229 </i>
    <i name="e_0_energy">     -0.32784593 </i>
   </energy>
  </scstep>
  <scstep>
   <time name="dav">    0.19    0.19</time>
   <time name="total">    0.19    0.19</time>
   <energy>
    <i name="e_fr_energy">     -2.68908164 </i>
    <i name="e_wo_entrp">     -2.67104551 </i>
    <i name="e_0_energy">     -2.68006357 </i>
   </energy>
  </scstep>
  <scstep>
   <time name="dav">    0.12    0.12</time>
   <time name="total">    0.12    0.12</time>
   <energy>
    <i name="e_fr_energy">     -2.85053942 </i>
    <i name="e_wo_entrp">     -2.81305983 </i>
    <i name="e_0_energy">     -2.83179962 </i>
   </energy>
  </scstep>
  <scstep>
   <time name="dav">    0.14    0.14</time>
   <time name="total">    0.21    0.21</time>
   <energy>
    <i name="e_fr_energy">     -3.03902884 </i>
    <i name="e_wo_entrp">     -2.81513769 </i>
    <i name="e_0_energy">     -2.92708326 </i>
   </energy>
  </scstep>
  <scstep>
   <time name="dav">    0.11    0.11</time>
   <time name="total">    0.42    0.42</time>
   <energy>
    <i name="e_fr_energy">     -1.15211179 </i>
    <i name="e_wo_entrp">     -0.92643582 </i>
    <i name="e_0_energy">     -1.03927380 </i>
   </energy>
  </scstep>
  <scstep>
   <time name="dav">    0.11    0.11</time>
   <time name="total">    0.42    0.42</time>
   <energy>
    <i name="e_fr_energy">     -1.08531364 </i>
    <i name="e_wo_entrp">     -0.85963781 </i>
    <i name="e_0_energy">     -0.97247572 </i>
   </energy>
  </scstep>
  <scstep>
   <time name="dav">    0.11    0.11</time>
   <time name="total">    0.42    0.41</time>
   <energy>
    <i name="e_fr_energy">     -0.97208225 </i>
    <i name="e_wo_entrp">     -0.74640641 </i>
    <i name="e_0_energy">     -0.85924433 </i>
   </energy>
  </scstep>
  <scstep>
   <time name="dav">    0.12    0.14</time>
   <time name="total">    0.43    0.45</time>
   <energy>
    <i name="e_fr_energy">     -0.97374922 </i>
    <i name="e_wo_entrp">     -0.74807339 </i>
    <i name="e_0_energy">     -0.86091130 </i>
   </energy>
  </scstep>
  <scstep>
   <time name="dav">    0.11    0.11</time>
   <time name="total">    0.41    0.41</time>
   <energy>
    <i name="e_fr_energy">     -0.98657573 </i>
    <i name="e_wo_entrp">     -0.76089990 </i>
    <i name="e_0_energy">     -0.87373781 </i>
   </energy>
  </scstep>
  <scstep>
   <time name="dav">    0.11    0.11</time>
   <time name="total">    0.42    0.42</time>
   <energy>
    <i name="e_fr_energy">     -0.99538375 </i>
    <i name="e_wo_entrp">     -0.76970792 </i>
    <i name="e_0_energy">     -0.88254584 </i>
   </energy>
  </scstep>
  <scstep>
   <time name="dav">    0.13    0.13</time>
   <time name="total">    0.44    0.44</time>
   <energy>
    <i name="e_fr_energy">     -0.99547652 </i>
    <i name="e_wo_entrp">     -0.76980069 </i>
    <i name="e_0_energy">     -0.88263861 </i>
   </energy>
  </scstep>
  <scstep>
   <time name="dav">    0.12    0.12</time>
   <time name="total">    0.44    0.44</time>
   <energy>
    <i name="e_fr_energy">     -0.99744815 </i>
    <i name="e_wo_entrp">     -0.77177232 </i>
    <i name="e_0_energy">     -0.88461023 </i>
   </energy>
  </scstep>
  <scstep>
   <time name="dav">    0.12    0.12</time>
   <time name="total">    0.44    0.43</time>
   <energy>
    <i name="e_fr_energy">     -0.98680614 </i>
    <i name="e_wo_entrp">     -0.76113031 </i>
    <i name="e_0_energy">     -0.87396822 </i>
   </energy>
  </scstep>
  <scstep>
   <time name="dav">    0.11    0.11</time>
   <time name="total">    0.42    0.42</time>
   <energy>
    <i name="e_fr_energy">     -0.98243662 </i>
    <i name="e_wo_entrp">     -0.75676079 </i>
    <i name="e_0_energy">     -0.86959871 </i>
   </energy>
  </scstep>
  <scstep>
   <time name="dav">    0.11    0.11</time>
   <time name="total">    0.42    0.42</time>
   <energy>
    <i name="e_fr_energy">     -0.98102231 </i>
    <i name="e_wo_entrp">     -0.75534606 </i>
    <i name="e_0_energy">     -0.86818418 </i>
   </energy>
  </scstep>
  <scstep>
   <time name="dav">    0.11    0.11</time>
   <time name="total">    0.42    0.42</time>
   <energy>
    <i name="e_fr_energy">     -0.98158049 </i>
    <i name="e_wo_entrp">     -0.75590424 </i>
    <i name="e_0_energy">     -0.86874236 </i>
   </energy>
  </scstep>
  <scstep>
   <time name="dav">    0.11    0.11</time>
   <time name="total">    0.42    0.42</time>
   <energy>
    <i name="e_fr_energy">     -0.98005273 </i>
    <i name="e_wo_entrp">     -0.75437686 </i>
    <i name="e_0_energy">     -0.86721479 </i>
   </energy>
  </scstep>
  <scstep>
   <time name="dav">    0.11    0.11</time>
   <time name="total">    0.43    0.43</time>
   <energy>
    <i name="e_fr_energy">     -0.97966462 </i>
    <i name="e_wo_entrp">     -0.75398878 </i>
    <i name="e_0_energy">     -0.86682670 </i>
   </energy>
  </scstep>
  <scstep>
   <time name="dav">    0.11    0.11</time>
   <time name="total">    0.42    0.42</time>
   <energy>
    <i name="e_fr_energy">     -0.97972020 </i>
    <i name="e_wo_entrp">     -0.75404436 </i>
    <i name="e_0_energy">     -0.86688228 </i>
   </energy>
  </scstep>
  <scstep>
   <time name="dav">    0.11    0.12</time>
   <time name="total">    0.42    0.44</time>
   <energy>
    <i name="e_fr_energy">     -0.97969500 </i>
    <i name="e_wo_entrp">     -0.75401916 </i>
    <i name="e_0_energy">     -0.86685708 </i>
   </energy>
  </scstep>
  <scstep>
   <time name="dav">    0.11    0.11</time>
   <time name="total">    0.43    0.43</time>
   <energy>
    <i name="e_fr_energy">     -0.97968594 </i>
    <i name="e_wo_entrp">     -0.75401010 </i>
    <i name="e_0_energy">     -0.86684802 </i>
   </energy>
  </scstep>
  <scstep>
   <time name="dav">    0.11    0.11</time>
   <time name="total">    0.43    0.43</time>
   <energy>
    <i name="e_fr_energy">     -0.97968900 </i>
    <i name="e_wo_entrp">     -0.75401316 </i>
    <i name="e_0_energy">     -0.86685108 </i>
   </energy>
  </scstep>
  <scstep>
   <time name="dav">    0.11    0.11</time>
   <time name="total">    0.36    0.36</time>
   <energy>
    <i name="alphaZ">      0.14436548 </i>
    <i name="ewald">    344.13789722 </i>
    <i name="hartreedc">   -315.04939265 </i>
    <i name="XCdc">     23.25483630 </i>
    <i name="pawpsdc">    204.13281897 </i>
    <i name="pawaedc">   -204.51167170 </i>
    <i name="eentropy">     -0.22567584 </i>
    <i name="bandstr">   -152.42907036 </i>
    <i name="atom">     99.56620307 </i>
    <i name="e_fr_energy">     -0.97968951 </i>
    <i name="e_wo_entrp">     -0.75401367 </i>
    <i name="e_0_energy">     -0.86685159 </i>
   </energy>
  </scstep>
  <structure>
   <crystal>
    <varray name="basis" >
     <v>      15.00000000       0.00000000       0.00000000 </v>
     <v>       0.00000000      15.00000000       0.00000000 </v>
     <v>       0.00000000       0.00000000       4.80000000 </v>
    </varray>
    <i name="volume">   1080.00000000 </i>
    <varray name="rec_basis" >
     <v>       0.06666667      -0.00000000       0.00000000 </v>
     <v>       0.00000000       0.06666667       0.00000000 </v>
     <v>      -0.00000000      -0.00000000       0.20833333 </v>
    </varray>
   </crystal>
   <varray name="positions" >
    <v>       0.00000000       0.00000000       0.00000000 </v>
    <v>       0.00000000       0.00000000       0.12500000 </v>
    <v>       0.00000000       0.00000000       0.25000000 </v>
    <v>       0.00000000       0.00000000       0.37500000 </v>
    <v>       0.00000000       0.00000000       0.50000000 </v>
    <v>       0.00000000       0.00000000       0.62500000 </v>
    <v>       0.00000000       0.00000000       0.75000000 </v>
    <v>       0.00000000       0.00000000       0.87500000 </v>
   </varray>
  </structure>
  <varray name="forces" >
   <v>      -0.00000000      -0.00000000       0.00000000 </v>
   <v>       0.00000000       0.00000000       0.00000000 </v>
   <v>      -0.00000000      -0.00000000      -0.00000000 </v>
   <v>      -0.00000000      -0.00000000      -0.00000000 </v>
   <v>       0.00000000      -0.00000000       0.00000000 </v>
   <v>       0.00000000       0.00000000      -0.00000000 </v>
   <v>      -0.00000000       0.00000000       0.00000000 </v>
   <v>      -0.00000000       0.00000000      -0.00000000 </v>
  </varray>
  <varray name="stress" >
   <v>      -3.16951429      -0.00000000      -0.00000000 </v>
   <v>      -0.00000000      -3.16951429      -0.00000000 </v>
   <v>      -0.00000000      -0.00000000      87.01467120 </v>
  </varray>
  <energy>
   <i name="e_fr_energy">     -0.97968951 </i>
   <i name="e_wo_entrp">     -0.86685159 </i>
   <i name="e_0_energy">     -0.22567584 </i>
  </energy>
  <time name="totalsc">    9.48    9.51</time>
  <eigenvalues>
   <array>
    <dimension dim="1">band</dimension>
    <dimension dim="2">kpoint</dimension>
    <dimension dim="3">spin</dimension>
    <field>eigene</field>
    <field>occ</field>
    <set>
     <set comment="spin 1">
      <set comment="kpoint 1">
       <r>  -28.6140    1.0000 </r>
       <r>  -22.1016    1.0000 </r>
       <r>  -22.1016    1.0000 </r>
       <r>   -3.3973    0.5000 </r>
       <r>   -3.3973    0.5000 </r>
       <r>   -2.5609    0.0000 </r>
       <r>   -2.5609    0.0000 </r>
       <r>   -2.1650    0.0000 </r>
       <r>    0.1549    0.0000 </r>
       <r>    0.1998    0.0000 </r>
       <r>    0.3502    0.0000 </r>
       <r>    0.3502    0.0000 </r>
      </set>
     </set>
     <set comment="spin 2">
      <set comment="kpoint 1">
       <r>  -28.6140    1.0000 </r>
       <r>  -22.1016    1.0000 </r>
       <r>  -22.1016    1.0000 </r>
       <r>   -3.3973    0.5000 </r>
       <r>   -3.3973    0.5000 </r>
       <r>   -2.5609    0.0000 </r>
       <r>   -2.5609    0.0000 </r>
       <r>   -2.1650    0.0000 </r>
       <r>    0.1501    0.0000 </r>
       <r>    0.1947    0.0000 </r>
       <r>    0.3496    0.0000 </r>
       <r>    0.3496    0.0000 </r>
      </set>
     </set>
    </set>
   </array>
  </eigenvalues>
  <separator name="orbital magnetization" >
   <v name="MAGDIPOLOUT">      0.00000000      0.00000000      0.00000000</v>
  </separator>
  <dos>
   <i name="efermi">     -3.39732905 </i>
   <total>
    <array>
     <dimension dim="1">gridpoints</dimension>
     <dimension dim="2">spin</dimension>
     <field>energy</field>
     <field>total</field>
     <field>integrated</field>
     <set>
      <set comment="spin 1">
       <r>   -30.6140     0.0000     0.0000 </r>
       <r>   -30.5042     0.0000     0.0000 </r>
       <r>   -30.3943     0.0000     0.0000 </r>
       <r>   -30.2844     0.0000     0.0000 </r>
       <r>   -30.1745     0.0000     0.0000 </r>
       <r>   -30.0646     0.0000     0.0000 </r>
       <r>   -29.9548     0.0000     0.0000 </r>
       <r>   -29.8449     0.0000     0.0000 </r>
       <r>   -29.7350     0.0000     0.0000 </r>
       <r>   -29.6251     0.0000     0.0000 </r>
       <r>   -29.5152     0.0000     0.0000 </r>
       <r>   -29.4053     0.0000     0.0000 </r>
       <r>   -29.2955     0.0000     0.0000 </r>
       <r>   -29.1856     0.0005     0.0001 </r>
       <r>   -29.0757     0.0095     0.0011 </r>
       <r>   -28.9658     0.1071     0.0129 </r>
       <r>   -28.8559     0.6762     0.0872 </r>
       <r>   -28.7461     2.3968     0.3505 </r>
       <r>   -28.6362     4.7783     0.8756 </r>
       <r>   -28.5263     5.3642     1.4650 </r>
       <r>   -28.4164     3.3918     1.8377 </r>
       <r>   -28.3065     1.2070     1.9703 </r>
       <r>   -28.1967     0.2413     1.9968 </r>
       <r>   -28.0868     0.0270     1.9998 </r>
       <r>   -27.9769     0.0017     2.0000 </r>
       <r>   -27.8670     0.0001     2.0000 </r>
       <r>   -27.7571     0.0000     2.0000 </r>
       <r>   -27.6473     0.0000     2.0000 </r>
       <r>   -27.5374     0.0000     2.0000 </r>
       <r>   -27.4275     0.0000     2.0000 </r>
       <r>   -27.3176     0.0000     2.0000 </r>
       <r>   -27.2077     0.0000     2.0000 </r>
       <r>   -27.0979     0.0000     2.0000 </r>
       <r>   -26.9880     0.0000     2.0000 </r>
       <r>   -26.8781     0.0000     2.0000 </r>
       <r>   -26.7682     0.0000     2.0000 </r>
       <r>   -26.6583     0.0000     2.0000 </r>
       <r>   -26.5484     0.0000     2.0000 </r>
       <r>   -26.4386     0.0000     2.0000 </r>
       <r>   -26.3287     0.0000     2.0000 </r>
       <r>   -26.2188     0.0000     2.0000 </r>
       <r>   -26.1089     0.0000     2.0000 </r>
       <r>   -25.9990     0.0000     2.0000 </r>
       <r>   -25.8892     0.0000     2.0000 </r>
       <r>   -25.7793     0.0000     2.0000 </r>
       <r>   -25.6694     0.0000     2.0000 </r>
       <r>   -25.5595     0.0000     2.0000 </r>
       <r>   -25.4496     0.0000     2.0000 </r>
       <r>   -25.3398     0.0000     2.0000 </r>
       <r>   -25.2299     0.0000     2.0000 </r>
       <r>   -25.1200     0.0000     2.0000 </r>
       <r>   -25.0101     0.0000     2.0000 </r>
       <r>   -24.9002     0.0000     2.0000 </r>
       <r>   -24.7904     0.0000     2.0000 </r>
       <r>   -24.6805     0.0000     2.0000 </r>
       <r>   -24.5706     0.0000     2.0000 </r>
       <r>   -24.4607     0.0000     2.0000 </r>
       <r>   -24.3508     0.0000     2.0000 </r>
       <r>   -24.2409     0.0000     2.0000 </r>
       <r>   -24.1311     0.0000     2.0000 </r>
       <r>   -24.0212     0.0000     2.0000 </r>
       <r>   -23.9113     0.0000     2.0000 </r>
       <r>   -23.8014     0.0000     2.0000 </r>
       <r>   -23.6915     0.0000     2.0000 </r>
       <r>   -23.5817     0.0000     2.0000 </r>
       <r>   -23.4718     0.0000     2.0000 </r>
       <r>   -23.3619     0.0000     2.0000 </r>
       <r>   -23.2520     0.0000     2.0000 </r>
       <r>   -23.1421     0.0000     2.0000 </r>
       <r>   -23.0323     0.0000     2.0000 </r>
       <r>   -22.9224     0.0000     2.0000 </r>
       <r>   -22.8125     0.0000     2.0000 </r>
       <r>   -22.7026     0.0004     2.0000 </r>
       <r>   -22.5927     0.0090     2.0010 </r>
       <r>   -22.4829     0.1184     2.0140 </r>
       <r>   -22.3730     0.8730     2.1100 </r>
       <r>   -22.2631     3.6122     2.5069 </r>
       <r>   -22.1532     8.4024     3.4301 </r>
       <r>   -22.0433    11.0034     4.6392 </r>
       <r>   -21.9334     8.1164     5.5310 </r>
       <r>   -21.8236     3.3703     5.9014 </r>
       <r>   -21.7137     0.7867     5.9878 </r>
       <r>   -21.6038     0.1030     5.9991 </r>
       <r>   -21.4939     0.0075     6.0000 </r>
       <r>   -21.3840     0.0003     6.0000 </r>
       <r>   -21.2742     0.0000     6.0000 </r>
       <r>   -21.1643     0.0000     6.0000 </r>
       <r>   -21.0544     0.0000     6.0000 </r>
       <r>   -20.9445     0.0000     6.0000 </r>
       <r>   -20.8346     0.0000     6.0000 </r>
       <r>   -20.7248     0.0000     6.0000 </r>
       <r>   -20.6149     0.0000     6.0000 </r>
       <r>   -20.5050     0.0000     6.0000 </r>
       <r>   -20.3951     0.0000     6.0000 </r>
       <r>   -20.2852     0.0000     6.0000 </r>
       <r>   -20.1754     0.0000     6.0000 </r>
       <r>   -20.0655     0.0000     6.0000 </r>
       <r>   -19.9556     0.0000     6.0000 </r>
       <r>   -19.8457     0.0000     6.0000 </r>
       <r>   -19.7358     0.0000     6.0000 </r>
       <r>   -19.6260     0.0000     6.0000 </r>
       <r>   -19.5161     0.0000     6.0000 </r>
       <r>   -19.4062     0.0000     6.0000 </r>
       <r>   -19.2963     0.0000     6.0000 </r>
       <r>   -19.1864     0.0000     6.0000 </r>
       <r>   -19.0765     0.0000     6.0000 </r>
       <r>   -18.9667     0.0000     6.0000 </r>
       <r>   -18.8568     0.0000     6.0000 </r>
       <r>   -18.7469     0.0000     6.0000 </r>
       <r>   -18.6370     0.0000     6.0000 </r>
       <r>   -18.5271     0.0000     6.0000 </r>
       <r>   -18.4173     0.0000     6.0000 </r>
       <r>   -18.3074     0.0000     6.0000 </r>
       <r>   -18.1975     0.0000     6.0000 </r>
       <r>   -18.0876     0.0000     6.0000 </r>
       <r>   -17.9777     0.0000     6.0000 </r>
       <r>   -17.8679     0.0000     6.0000 </r>
       <r>   -17.7580     0.0000     6.0000 </r>
       <r>   -17.6481     0.0000     6.0000 </r>
       <r>   -17.5382     0.0000     6.0000 </r>
       <r>   -17.4283     0.0000     6.0000 </r>
       <r>   -17.3185     0.0000     6.0000 </r>
       <r>   -17.2086     0.0000     6.0000 </r>
       <r>   -17.0987     0.0000     6.0000 </r>
       <r>   -16.9888     0.0000     6.0000 </r>
       <r>   -16.8789     0.0000     6.0000 </r>
       <r>   -16.7690     0.0000     6.0000 </r>
       <r>   -16.6592     0.0000     6.0000 </r>
       <r>   -16.5493     0.0000     6.0000 </r>
       <r>   -16.4394     0.0000     6.0000 </r>
       <r>   -16.3295     0.0000     6.0000 </r>
       <r>   -16.2196     0.0000     6.0000 </r>
       <r>   -16.1098     0.0000     6.0000 </r>
       <r>   -15.9999     0.0000     6.0000 </r>
       <r>   -15.8900     0.0000     6.0000 </r>
       <r>   -15.7801     0.0000     6.0000 </r>
       <r>   -15.6702     0.0000     6.0000 </r>
       <r>   -15.5604     0.0000     6.0000 </r>
       <r>   -15.4505     0.0000     6.0000 </r>
       <r>   -15.3406     0.0000     6.0000 </r>
       <r>   -15.2307     0.0000     6.0000 </r>
       <r>   -15.1208     0.0000     6.0000 </r>
       <r>   -15.0110     0.0000     6.0000 </r>
       <r>   -14.9011     0.0000     6.0000 </r>
       <r>   -14.7912     0.0000     6.0000 </r>
       <r>   -14.6813     0.0000     6.0000 </r>
       <r>   -14.5714     0.0000     6.0000 </r>
       <r>   -14.4616     0.0000     6.0000 </r>
       <r>   -14.3517     0.0000     6.0000 </r>
       <r>   -14.2418     0.0000     6.0000 </r>
       <r>   -14.1319     0.0000     6.0000 </r>
       <r>   -14.0220     0.0000     6.0000 </r>
       <r>   -13.9121     0.0000     6.0000 </r>
       <r>   -13.8023     0.0000     6.0000 </r>
       <r>   -13.6924     0.0000     6.0000 </r>
       <r>   -13.5825     0.0000     6.0000 </r>
       <r>   -13.4726     0.0000     6.0000 </r>
       <r>   -13.3627     0.0000     6.0000 </r>
       <r>   -13.2529     0.0000     6.0000 </r>
       <r>   -13.1430     0.0000     6.0000 </r>
       <r>   -13.0331     0.0000     6.0000 </r>
       <r>   -12.9232     0.0000     6.0000 </r>
       <r>   -12.8133     0.0000     6.0000 </r>
       <r>   -12.7035     0.0000     6.0000 </r>
       <r>   -12.5936     0.0000     6.0000 </r>
       <r>   -12.4837     0.0000     6.0000 </r>
       <r>   -12.3738     0.0000     6.0000 </r>
       <r>   -12.2639     0.0000     6.0000 </r>
       <r>   -12.1541     0.0000     6.0000 </r>
       <r>   -12.0442     0.0000     6.0000 </r>
       <r>   -11.9343     0.0000     6.0000 </r>
       <r>   -11.8244     0.0000     6.0000 </r>
       <r>   -11.7145     0.0000     6.0000 </r>
       <r>   -11.6046     0.0000     6.0000 </r>
       <r>   -11.4948     0.0000     6.0000 </r>
       <r>   -11.3849     0.0000     6.0000 </r>
       <r>   -11.2750     0.0000     6.0000 </r>
       <r>   -11.1651     0.0000     6.0000 </r>
       <r>   -11.0552     0.0000     6.0000 </r>
       <r>   -10.9454     0.0000     6.0000 </r>
       <r>   -10.8355     0.0000     6.0000 </r>
       <r>   -10.7256     0.0000     6.0000 </r>
       <r>   -10.6157     0.0000     6.0000 </r>
       <r>   -10.5058     0.0000     6.0000 </r>
       <r>   -10.3960     0.0000     6.0000 </r>
       <r>   -10.2861     0.0000     6.0000 </r>
       <r>   -10.1762     0.0000     6.0000 </r>
       <r>   -10.0663     0.0000     6.0000 </r>
       <r>    -9.9564     0.0000     6.0000 </r>
       <r>    -9.8466     0.0000     6.0000 </r>
       <r>    -9.7367     0.0000     6.0000 </r>
       <r>    -9.6268     0.0000     6.0000 </r>
       <r>    -9.5169     0.0000     6.0000 </r>
       <r>    -9.4070     0.0000     6.0000 </r>
       <r>    -9.2971     0.0000     6.0000 </r>
       <r>    -9.1873     0.0000     6.0000 </r>
       <r>    -9.0774     0.0000     6.0000 </r>
       <r>    -8.9675     0.0000     6.0000 </r>
       <r>    -8.8576     0.0000     6.0000 </r>
       <r>    -8.7477     0.0000     6.0000 </r>
       <r>    -8.6379     0.0000     6.0000 </r>
       <r>    -8.5280     0.0000     6.0000 </r>
       <r>    -8.4181     0.0000     6.0000 </r>
       <r>    -8.3082     0.0000     6.0000 </r>
       <r>    -8.1983     0.0000     6.0000 </r>
       <r>    -8.0885     0.0000     6.0000 </r>
       <r>    -7.9786     0.0000     6.0000 </r>
       <r>    -7.8687     0.0000     6.0000 </r>
       <r>    -7.7588     0.0000     6.0000 </r>
       <r>    -7.6489     0.0000     6.0000 </r>
       <r>    -7.5391     0.0000     6.0000 </r>
       <r>    -7.4292     0.0000     6.0000 </r>
       <r>    -7.3193     0.0000     6.0000 </r>
       <r>    -7.2094     0.0000     6.0000 </r>
       <r>    -7.0995     0.0000     6.0000 </r>
       <r>    -6.9897     0.0000     6.0000 </r>
       <r>    -6.8798     0.0000     6.0000 </r>
       <r>    -6.7699     0.0000     6.0000 </r>
       <r>    -6.6600     0.0000     6.0000 </r>
       <r>    -6.5501     0.0000     6.0000 </r>
       <r>    -6.4402     0.0000     6.0000 </r>
       <r>    -6.3304     0.0000     6.0000 </r>
       <r>    -6.2205     0.0000     6.0000 </r>
       <r>    -6.1106     0.0000     6.0000 </r>
       <r>    -6.0007     0.0000     6.0000 </r>
       <r>    -5.8908     0.0000     6.0000 </r>
       <r>    -5.7810     0.0000     6.0000 </r>
       <r>    -5.6711     0.0000     6.0000 </r>
       <r>    -5.5612     0.0000     6.0000 </r>
       <r>    -5.4513     0.0000     6.0000 </r>
       <r>    -5.3414     0.0000     6.0000 </r>
       <r>    -5.2316     0.0000     6.0000 </r>
       <r>    -5.1217     0.0000     6.0000 </r>
       <r>    -5.0118     0.0000     6.0000 </r>
       <r>    -4.9019     0.0000     6.0000 </r>
       <r>    -4.7920     0.0000     6.0000 </r>
       <r>    -4.6822     0.0000     6.0000 </r>
       <r>    -4.5723     0.0000     6.0000 </r>
       <r>    -4.4624     0.0000     6.0000 </r>
       <r>    -4.3525     0.0000     6.0000 </r>
       <r>    -4.2426     0.0000     6.0000 </r>
       <r>    -4.1327     0.0000     6.0000 </r>
       <r>    -4.0229     0.0002     6.0000 </r>
       <r>    -3.9130     0.0047     6.0005 </r>
       <r>    -3.8031     0.0700     6.0082 </r>
       <r>    -3.6932     0.5879     6.0728 </r>
       <r>    -3.5833     2.7664     6.3768 </r>
       <r>    -3.4735     7.3158     7.1807 </r>
       <r>    -3.3636    10.8894     8.3772 </r>
       <r>    -3.2537     9.1295     9.3804 </r>
       <r>    -3.1438     4.3104     9.8540 </r>
       <r>    -3.0339     1.1584     9.9813 </r>
       <r>    -2.9241     0.3417    10.0188 </r>
       <r>    -2.8142     1.1621    10.1465 </r>
       <r>    -2.7043     4.3208    10.6213 </r>
       <r>    -2.5944     9.1587    11.6277 </r>
       <r>    -2.4845    11.0822    12.8454 </r>
       <r>    -2.3747     8.3462    13.7625 </r>
       <r>    -2.2648     5.8742    14.4079 </r>
       <r>    -2.1549     5.8320    15.0488 </r>
       <r>    -2.0450     5.0464    15.6033 </r>
       <r>    -1.9351     2.6633    15.8959 </r>
       <r>    -1.8253     0.7992    15.9837 </r>
       <r>    -1.7154     0.1348    15.9985 </r>
       <r>    -1.6055     0.0127    15.9999 </r>
       <r>    -1.4956     0.0007    16.0000 </r>
       <r>    -1.3857     0.0000    16.0000 </r>
       <r>    -1.2758     0.0000    16.0000 </r>
       <r>    -1.1660     0.0000    16.0000 </r>
       <r>    -1.0561     0.0000    16.0000 </r>
       <r>    -0.9462     0.0000    16.0000 </r>
       <r>    -0.8363     0.0000    16.0000 </r>
       <r>    -0.7264     0.0000    16.0000 </r>
       <r>    -0.6166     0.0000    16.0000 </r>
       <r>    -0.5067     0.0000    16.0000 </r>
       <r>    -0.3968     0.0011    16.0001 </r>
       <r>    -0.2869     0.0205    16.0024 </r>
       <r>    -0.1770     0.2241    16.0270 </r>
       <r>    -0.0672     1.4081    16.1817 </r>
       <r>     0.0427     5.2046    16.7536 </r>
       <r>     0.1526    11.7993    18.0501 </r>
       <r>     0.2625    17.4318    19.9655 </r>
       <r>     0.3724    17.6264    21.9023 </r>
       <r>     0.4822    12.1055    23.2325 </r>
       <r>     0.5921     5.3297    23.8181 </r>
       <r>     0.7020     1.4164    23.9738 </r>
       <r>     0.8119     0.2185    23.9978 </r>
       <r>     0.9218     0.0192    23.9999 </r>
       <r>     1.0317     0.0009    24.0000 </r>
       <r>     1.1415     0.0000    24.0000 </r>
       <r>     1.2514     0.0000    24.0000 </r>
       <r>     1.3613     0.0000    24.0000 </r>
       <r>     1.4712     0.0000    24.0000 </r>
       <r>     1.5811     0.0000    24.0000 </r>
       <r>     1.6909     0.0000    24.0000 </r>
       <r>     1.8008     0.0000    24.0000 </r>
       <r>     1.9107     0.0000    24.0000 </r>
       <r>     2.0206     0.0000    24.0000 </r>
       <r>     2.1305     0.0000    24.0000 </r>
       <r>     2.2403     0.0000    24.0000 </r>
       <r>     2.3502     0.0000    24.0000 </r>
      </set>
      <set comment="spin 2">
       <r>   -30.6140     0.0000     0.0000 </r>
       <r>   -30.5042     0.0000     0.0000 </r>
       <r>   -30.3943     0.0000     0.0000 </r>
       <r>   -30.2844     0.0000     0.0000 </r>
       <r>   -30.1745     0.0000     0.0000 </r>
       <r>   -30.0646     0.0000     0.0000 </r>
       <r>   -29.9548     0.0000     0.0000 </r>
       <r>   -29.8449     0.0000     0.0000 </r>
       <r>   -29.7350     0.0000     0.0000 </r>
       <r>   -29.6251     0.0000     0.0000 </r>
       <r>   -29.5152     0.0000     0.0000 </r>
       <r>   -29.4053     0.0000     0.0000 </r>
       <r>   -29.2955     0.0000     0.0000 </r>
       <r>   -29.1856     0.0005     0.0001 </r>
       <r>   -29.0757     0.0095     0.0011 </r>
       <r>   -28.9658     0.1071     0.0129 </r>
       <r>   -28.8559     0.6762     0.0872 </r>
       <r>   -28.7461     2.3968     0.3505 </r>
       <r>   -28.6362     4.7782     0.8756 </r>
       <r>   -28.5263     5.3643     1.4650 </r>
       <r>   -28.4164     3.3919     1.8377 </r>
       <r>   -28.3065     1.2070     1.9703 </r>
       <r>   -28.1967     0.2413     1.9968 </r>
       <r>   -28.0868     0.0270     1.9998 </r>
       <r>   -27.9769     0.0017     2.0000 </r>
       <r>   -27.8670     0.0001     2.0000 </r>
       <r>   -27.7571     0.0000     2.0000 </r>
       <r>   -27.6473     0.0000     2.0000 </r>
       <r>   -27.5374     0.0000     2.0000 </r>
       <r>   -27.4275     0.0000     2.0000 </r>
       <r>   -27.3176     0.0000     2.0000 </r>
       <r>   -27.2077     0.0000     2.0000 </r>
       <r>   -27.0979     0.0000     2.0000 </r>
       <r>   -26.9880     0.0000     2.0000 </r>
       <r>   -26.8781     0.0000     2.0000 </r>
       <r>   -26.7682     0.0000     2.0000 </r>
       <r>   -26.6583     0.0000     2.0000 </r>
       <r>   -26.5484     0.0000     2.0000 </r>
       <r>   -26.4386     0.0000     2.0000 </r>
       <r>   -26.3287     0.0000     2.0000 </r>
       <r>   -26.2188     0.0000     2.0000 </r>
       <r>   -26.1089     0.0000     2.0000 </r>
       <r>   -25.9990     0.0000     2.0000 </r>
       <r>   -25.8892     0.0000     2.0000 </r>
       <r>   -25.7793     0.0000     2.0000 </r>
       <r>   -25.6694     0.0000     2.0000 </r>
       <r>   -25.5595     0.0000     2.0000 </r>
       <r>   -25.4496     0.0000     2.0000 </r>
       <r>   -25.3398     0.0000     2.0000 </r>
       <r>   -25.2299     0.0000     2.0000 </r>
       <r>   -25.1200     0.0000     2.0000 </r>
       <r>   -25.0101     0.0000     2.0000 </r>
       <r>   -24.9002     0.0000     2.0000 </r>
       <r>   -24.7904     0.0000     2.0000 </r>
       <r>   -24.6805     0.0000     2.0000 </r>
       <r>   -24.5706     0.0000     2.0000 </r>
       <r>   -24.4607     0.0000     2.0000 </r>
       <r>   -24.3508     0.0000     2.0000 </r>
       <r>   -24.2409     0.0000     2.0000 </r>
       <r>   -24.1311     0.0000     2.0000 </r>
       <r>   -24.0212     0.0000     2.0000 </r>
       <r>   -23.9113     0.0000     2.0000 </r>
       <r>   -23.8014     0.0000     2.0000 </r>
       <r>   -23.6915     0.0000     2.0000 </r>
       <r>   -23.5817     0.0000     2.0000 </r>
       <r>   -23.4718     0.0000     2.0000 </r>
       <r>   -23.3619     0.0000     2.0000 </r>
       <r>   -23.2520     0.0000     2.0000 </r>
       <r>   -23.1421     0.0000     2.0000 </r>
       <r>   -23.0323     0.0000     2.0000 </r>
       <r>   -22.9224     0.0000     2.0000 </r>
       <r>   -22.8125     0.0000     2.0000 </r>
       <r>   -22.7026     0.0004     2.0000 </r>
       <r>   -22.5927     0.0090     2.0010 </r>
       <r>   -22.4829     0.1184     2.0140 </r>
       <r>   -22.3730     0.8730     2.1100 </r>
       <r>   -22.2631     3.6122     2.5069 </r>
       <r>   -22.1532     8.4023     3.4301 </r>
       <r>   -22.0433    11.0034     4.6392 </r>
       <r>   -21.9334     8.1165     5.5310 </r>
       <r>   -21.8236     3.3704     5.9014 </r>
       <r>   -21.7137     0.7867     5.9878 </r>
       <r>   -21.6038     0.1030     5.9991 </r>
       <r>   -21.4939     0.0075     6.0000 </r>
       <r>   -21.3840     0.0003     6.0000 </r>
       <r>   -21.2742     0.0000     6.0000 </r>
       <r>   -21.1643     0.0000     6.0000 </r>
       <r>   -21.0544     0.0000     6.0000 </r>
       <r>   -20.9445     0.0000     6.0000 </r>
       <r>   -20.8346     0.0000     6.0000 </r>
       <r>   -20.7248     0.0000     6.0000 </r>
       <r>   -20.6149     0.0000     6.0000 </r>
       <r>   -20.5050     0.0000     6.0000 </r>
       <r>   -20.3951     0.0000     6.0000 </r>
       <r>   -20.2852     0.0000     6.0000 </r>
       <r>   -20.1754     0.0000     6.0000 </r>
       <r>   -20.0655     0.0000     6.0000 </r>
       <r>   -19.9556     0.0000     6.0000 </r>
       <r>   -19.8457     0.0000     6.0000 </r>
       <r>   -19.7358     0.0000     6.0000 </r>
       <r>   -19.6260     0.0000     6.0000 </r>
       <r>   -19.5161     0.0000     6.0000 </r>
       <r>   -19.4062     0.0000     6.0000 </r>
       <r>   -19.2963     0.0000     6.0000 </r>
       <r>   -19.1864     0.0000     6.0000 </r>
       <r>   -19.0765     0.0000     6.0000 </r>
       <r>   -18.9667     0.0000     6.0000 </r>
       <r>   -18.8568     0.0000     6.0000 </r>
       <r>   -18.7469     0.0000     6.0000 </r>
       <r>   -18.6370     0.0000     6.0000 </r>
       <r>   -18.5271     0.0000     6.0000 </r>
       <r>   -18.4173     0.0000     6.0000 </r>
       <r>   -18.3074     0.0000     6.0000 </r>
       <r>   -18.1975     0.0000     6.0000 </r>
       <r>   -18.0876     0.0000     6.0000 </r>
       <r>   -17.9777     0.0000     6.0000 </r>
       <r>   -17.8679     0.0000     6.0000 </r>
       <r>   -17.7580     0.0000     6.0000 </r>
       <r>   -17.6481     0.0000     6.0000 </r>
       <r>   -17.5382     0.0000     6.0000 </r>
       <r>   -17.4283     0.0000     6.0000 </r>
       <r>   -17.3185     0.0000     6.0000 </r>
       <r>   -17.2086     0.0000     6.0000 </r>
       <r>   -17.0987     0.0000     6.0000 </r>
       <r>   -16.9888     0.0000     6.0000 </r>
       <r>   -16.8789     0.0000     6.0000 </r>
       <r>   -16.7690     0.0000     6.0000 </r>
       <r>   -16.6592     0.0000     6.0000 </r>
       <r>   -16.5493     0.0000     6.0000 </r>
       <r>   -16.4394     0.0000     6.0000 </r>
       <r>   -16.3295     0.0000     6.0000 </r>
       <r>   -16.2196     0.0000     6.0000 </r>
       <r>   -16.1098     0.0000     6.0000 </r>
       <r>   -15.9999     0.0000     6.0000 </r>
       <r>   -15.8900     0.0000     6.0000 </r>
       <r>   -15.7801     0.0000     6.0000 </r>
       <r>   -15.6702     0.0000     6.0000 </r>
       <r>   -15.5604     0.0000     6.0000 </r>
       <r>   -15.4505     0.0000     6.0000 </r>
       <r>   -15.3406     0.0000     6.0000 </r>
       <r>   -15.2307     0.0000     6.0000 </r>
       <r>   -15.1208     0.0000     6.0000 </r>
       <r>   -15.0110     0.0000     6.0000 </r>
       <r>   -14.9011     0.0000     6.0000 </r>
       <r>   -14.7912     0.0000     6.0000 </r>
       <r>   -14.6813     0.0000     6.0000 </r>
       <r>   -14.5714     0.0000     6.0000 </r>
       <r>   -14.4616     0.0000     6.0000 </r>
       <r>   -14.3517     0.0000     6.0000 </r>
       <r>   -14.2418     0.0000     6.0000 </r>
       <r>   -14.1319     0.0000     6.0000 </r>
       <r>   -14.0220     0.0000     6.0000 </r>
       <r>   -13.9121     0.0000     6.0000 </r>
       <r>   -13.8023     0.0000     6.0000 </r>
       <r>   -13.6924     0.0000     6.0000 </r>
       <r>   -13.5825     0.0000     6.0000 </r>
       <r>   -13.4726     0.0000     6.0000 </r>
       <r>   -13.3627     0.0000     6.0000 </r>
       <r>   -13.2529     0.0000     6.0000 </r>
       <r>   -13.1430     0.0000     6.0000 </r>
       <r>   -13.0331     0.0000     6.0000 </r>
       <r>   -12.9232     0.0000     6.0000 </r>
       <r>   -12.8133     0.0000     6.0000 </r>
       <r>   -12.7035     0.0000     6.0000 </r>
       <r>   -12.5936     0.0000     6.0000 </r>
       <r>   -12.4837     0.0000     6.0000 </r>
       <r>   -12.3738     0.0000     6.0000 </r>
       <r>   -12.2639     0.0000     6.0000 </r>
       <r>   -12.1541     0.0000     6.0000 </r>
       <r>   -12.0442     0.0000     6.0000 </r>
       <r>   -11.9343     0.0000     6.0000 </r>
       <r>   -11.8244     0.0000     6.0000 </r>
       <r>   -11.7145     0.0000     6.0000 </r>
       <r>   -11.6046     0.0000     6.0000 </r>
       <r>   -11.4948     0.0000     6.0000 </r>
       <r>   -11.3849     0.0000     6.0000 </r>
       <r>   -11.2750     0.0000     6.0000 </r>
       <r>   -11.1651     0.0000     6.0000 </r>
       <r>   -11.0552     0.0000     6.0000 </r>
       <r>   -10.9454     0.0000     6.0000 </r>
       <r>   -10.8355     0.0000     6.0000 </r>
       <r>   -10.7256     0.0000     6.0000 </r>
       <r>   -10.6157     0.0000     6.0000 </r>
       <r>   -10.5058     0.0000     6.0000 </r>
       <r>   -10.3960     0.0000     6.0000 </r>
       <r>   -10.2861     0.0000     6.0000 </r>
       <r>   -10.1762     0.0000     6.0000 </r>
       <r>   -10.0663     0.0000     6.0000 </r>
       <r>    -9.9564     0.0000     6.0000 </r>
       <r>    -9.8466     0.0000     6.0000 </r>
       <r>    -9.7367     0.0000     6.0000 </r>
       <r>    -9.6268     0.0000     6.0000 </r>
       <r>    -9.5169     0.0000     6.0000 </r>
       <r>    -9.4070     0.0000     6.0000 </r>
       <r>    -9.2971     0.0000     6.0000 </r>
       <r>    -9.1873     0.0000     6.0000 </r>
       <r>    -9.0774     0.0000     6.0000 </r>
       <r>    -8.9675     0.0000     6.0000 </r>
       <r>    -8.8576     0.0000     6.0000 </r>
       <r>    -8.7477     0.0000     6.0000 </r>
       <r>    -8.6379     0.0000     6.0000 </r>
       <r>    -8.5280     0.0000     6.0000 </r>
       <r>    -8.4181     0.0000     6.0000 </r>
       <r>    -8.3082     0.0000     6.0000 </r>
       <r>    -8.1983     0.0000     6.0000 </r>
       <r>    -8.0885     0.0000     6.0000 </r>
       <r>    -7.9786     0.0000     6.0000 </r>
       <r>    -7.8687     0.0000     6.0000 </r>
       <r>    -7.7588     0.0000     6.0000 </r>
       <r>    -7.6489     0.0000     6.0000 </r>
       <r>    -7.5391     0.0000     6.0000 </r>
       <r>    -7.4292     0.0000     6.0000 </r>
       <r>    -7.3193     0.0000     6.0000 </r>
       <r>    -7.2094     0.0000     6.0000 </r>
       <r>    -7.0995     0.0000     6.0000 </r>
       <r>    -6.9897     0.0000     6.0000 </r>
       <r>    -6.8798     0.0000     6.0000 </r>
       <r>    -6.7699     0.0000     6.0000 </r>
       <r>    -6.6600     0.0000     6.0000 </r>
       <r>    -6.5501     0.0000     6.0000 </r>
       <r>    -6.4402     0.0000     6.0000 </r>
       <r>    -6.3304     0.0000     6.0000 </r>
       <r>    -6.2205     0.0000     6.0000 </r>
       <r>    -6.1106     0.0000     6.0000 </r>
       <r>    -6.0007     0.0000     6.0000 </r>
       <r>    -5.8908     0.0000     6.0000 </r>
       <r>    -5.7810     0.0000     6.0000 </r>
       <r>    -5.6711     0.0000     6.0000 </r>
       <r>    -5.5612     0.0000     6.0000 </r>
       <r>    -5.4513     0.0000     6.0000 </r>
       <r>    -5.3414     0.0000     6.0000 </r>
       <r>    -5.2316     0.0000     6.0000 </r>
       <r>    -5.1217     0.0000     6.0000 </r>
       <r>    -5.0118     0.0000     6.0000 </r>
       <r>    -4.9019     0.0000     6.0000 </r>
       <r>    -4.7920     0.0000     6.0000 </r>
       <r>    -4.6822     0.0000     6.0000 </r>
       <r>    -4.5723     0.0000     6.0000 </r>
       <r>    -4.4624     0.0000     6.0000 </r>
       <r>    -4.3525     0.0000     6.0000 </r>
       <r>    -4.2426     0.0000     6.0000 </r>
       <r>    -4.1327     0.0000     6.0000 </r>
       <r>    -4.0229     0.0002     6.0000 </r>
       <r>    -3.9130     0.0047     6.0005 </r>
       <r>    -3.8031     0.0700     6.0082 </r>
       <r>    -3.6932     0.5879     6.0728 </r>
       <r>    -3.5833     2.7664     6.3768 </r>
       <r>    -3.4735     7.3158     7.1807 </r>
       <r>    -3.3636    10.8894     8.3772 </r>
       <r>    -3.2537     9.1295     9.3804 </r>
       <r>    -3.1438     4.3104     9.8540 </r>
       <r>    -3.0339     1.1584     9.9813 </r>
       <r>    -2.9241     0.3417    10.0188 </r>
       <r>    -2.8142     1.1621    10.1465 </r>
       <r>    -2.7043     4.3207    10.6213 </r>
       <r>    -2.5944     9.1586    11.6276 </r>
       <r>    -2.4845    11.0824    12.8454 </r>
       <r>    -2.3747     8.3468    13.7625 </r>
       <r>    -2.2648     5.8751    14.4081 </r>
       <r>    -2.1549     5.8324    15.0490 </r>
       <r>    -2.0450     5.0458    15.6034 </r>
       <r>    -1.9351     2.6624    15.8960 </r>
       <r>    -1.8253     0.7987    15.9837 </r>
       <r>    -1.7154     0.1347    15.9985 </r>
       <r>    -1.6055     0.0127    15.9999 </r>
       <r>    -1.4956     0.0007    16.0000 </r>
       <r>    -1.3857     0.0000    16.0000 </r>
       <r>    -1.2758     0.0000    16.0000 </r>
       <r>    -1.1660     0.0000    16.0000 </r>
       <r>    -1.0561     0.0000    16.0000 </r>
       <r>    -0.9462     0.0000    16.0000 </r>
       <r>    -0.8363     0.0000    16.0000 </r>
       <r>    -0.7264     0.0000    16.0000 </r>
       <r>    -0.6166     0.0000    16.0000 </r>
       <r>    -0.5067     0.0000    16.0000 </r>
       <r>    -0.3968     0.0012    16.0001 </r>
       <r>    -0.2869     0.0231    16.0027 </r>
       <r>    -0.1770     0.2458    16.0297 </r>
       <r>    -0.0672     1.5046    16.1950 </r>
       <r>     0.0427     5.4180    16.7903 </r>
       <r>     0.1526    11.9878    18.1076 </r>
       <r>     0.2625    17.3835    20.0177 </r>
       <r>     0.3724    17.4144    21.9312 </r>
       <r>     0.4822    11.9374    23.2429 </r>
       <r>     0.5921     5.2582    23.8207 </r>
       <r>     0.7020     1.3971    23.9742 </r>
       <r>     0.8119     0.2152    23.9978 </r>
       <r>     0.9218     0.0188    23.9999 </r>
       <r>     1.0317     0.0009    24.0000 </r>
       <r>     1.1415     0.0000    24.0000 </r>
       <r>     1.2514     0.0000    24.0000 </r>
       <r>     1.3613     0.0000    24.0000 </r>
       <r>     1.4712     0.0000    24.0000 </r>
       <r>     1.5811     0.0000    24.0000 </r>
       <r>     1.6909     0.0000    24.0000 </r>
       <r>     1.8008     0.0000    24.0000 </r>
       <r>     1.9107     0.0000    24.0000 </r>
       <r>     2.0206     0.0000    24.0000 </r>
       <r>     2.1305     0.0000    24.0000 </r>
       <r>     2.2403     0.0000    24.0000 </r>
       <r>     2.3502     0.0000    24.0000 </r>
      </set>
     </set>
    </array>
   </total>
  </dos>
 </calculation>
 <structure name="finalpos" >
  <crystal>
   <varray name="basis" >
    <v>      15.00000000       0.00000000       0.00000000 </v>
    <v>       0.00000000      15.00000000       0.00000000 </v>
    <v>       0.00000000       0.00000000       4.80000000 </v>
   </varray>
   <i name="volume">   1080.00000000 </i>
   <varray name="rec_basis" >
    <v>       0.06666667      -0.00000000       0.00000000 </v>
    <v>       0.00000000       0.06666667       0.00000000 </v>
    <v>      -0.00000000      -0.00000000       0.20833333 </v>
   </varray>
  </crystal>
  <varray name="positions" >
   <v>       0.00000000       0.00000000       0.00000000 </v>
   <v>       0.00000000       0.00000000       0.12500000 </v>
   <v>       0.00000000       0.00000000       0.25000000 </v>
   <v>       0.00000000       0.00000000       0.37500000 </v>
   <v>       0.00000000       0.00000000       0.50000000 </v>
   <v>       0.00000000       0.00000000       0.62500000 </v>
   <v>       0.00000000       0.00000000       0.75000000 </v>
   <v>       0.00000000       0.00000000       0.87500000 </v>
  </varray>
 </structure>
</modeling>
