   8   8   0   0
  0.3150000E+03  0.1500000E-08  0.1500000E-08  0.1120000E-08  0.5000000E-15
  1.000000000000000E-004
  CAR 
 unknown system                          
      2.60084276    -12.67728115  301     -6.09620097      1.00000000
    -12.677  0.0000E+00  0.0000E+00  0.0000E+00  0.0000E+00
    -12.626  0.0000E+00  0.0000E+00  0.0000E+00  0.0000E+00
    -12.575  0.0000E+00  0.0000E+00  0.0000E+00  0.0000E+00
    -12.524  0.0000E+00  0.0000E+00  0.0000E+00  0.0000E+00
    -12.474  0.0000E+00  0.0000E+00  0.0000E+00  0.0000E+00
    -12.423  0.0000E+00  0.0000E+00  0.0000E+00  0.0000E+00
    -12.372  0.0000E+00  0.0000E+00  0.0000E+00  0.0000E+00
    -12.321  0.0000E+00  0.0000E+00  0.0000E+00  0.0000E+00
    -12.270  0.0000E+00  0.0000E+00  0.0000E+00  0.0000E+00
    -12.219  0.0000E+00  0.0000E+00  0.0000E+00  0.0000E+00
    -12.168  0.0000E+00  0.0000E+00  0.0000E+00  0.0000E+00
    -12.117  0.0000E+00  0.0000E+00  0.0000E+00  0.0000E+00
    -12.066  0.0000E+00  0.0000E+00  0.0000E+00  0.0000E+00
    -12.015  0.0000E+00  0.0000E+00  0.0000E+00  0.0000E+00
    -11.964  0.0000E+00  0.0000E+00  0.0000E+00  0.0000E+00
    -11.913  0.0000E+00  0.0000E+00  0.0000E+00  0.0000E+00
    -11.862  0.0000E+00  0.0000E+00  0.0000E+00  0.0000E+00
    -11.812  0.2180E-13  0.2180E-13  0.1110E-14  0.1110E-14
    -11.761  0.3423E-12  0.3423E-12  0.1854E-13  0.1854E-13
    -11.710  0.5284E-11  0.5284E-11  0.2877E-12  0.2877E-12
    -11.659  0.7137E-10  0.7136E-10  0.3922E-11  0.3922E-11
    -11.608  0.8477E-09  0.8477E-09  0.4709E-10  0.4709E-10
    -11.557  0.8854E-08  0.8853E-08  0.4980E-09  0.4980E-09
    -11.506  0.8131E-07  0.8131E-07  0.4639E-08  0.4639E-08
    -11.455  0.6567E-06  0.6567E-06  0.3808E-07  0.3808E-07
    -11.404  0.4664E-05  0.4664E-05  0.2756E-06  0.2756E-06
    -11.353  0.2913E-04  0.2913E-04  0.1759E-05  0.1759E-05
    -11.302  0.1600E-03  0.1600E-03  0.9907E-05  0.9907E-05
    -11.251  0.7728E-03  0.7728E-03  0.4926E-04  0.4926E-04
    -11.200  0.3283E-02  0.3283E-02  0.2165E-03  0.2165E-03
    -11.149  0.1227E-01  0.1227E-01  0.8412E-03  0.8412E-03
    -11.099  0.4031E-01  0.4031E-01  0.2894E-02  0.2894E-02
    -11.048  0.1165E+00  0.1165E+00  0.8828E-02  0.8828E-02
    -10.997  0.2962E+00  0.2962E+00  0.2391E-01  0.2391E-01
    -10.946  0.6623E+00  0.6623E+00  0.5764E-01  0.5764E-01
    -10.895  0.1302E+01  0.1302E+01  0.1240E+00  0.1240E+00
    -10.844  0.2253E+01  0.2253E+01  0.2387E+00  0.2387E+00
    -10.793  0.3428E+01  0.3428E+01  0.4133E+00  0.4133E+00
    -10.742  0.4588E+01  0.4588E+01  0.6470E+00  0.6469E+00
    -10.691  0.5401E+01  0.5401E+01  0.9220E+00  0.9220E+00
    -10.640  0.5593E+01  0.5593E+01  0.1207E+01  0.1207E+01
    -10.589  0.5094E+01  0.5094E+01  0.1466E+01  0.1466E+01
    -10.538  0.4081E+01  0.4081E+01  0.1674E+01  0.1674E+01
    -10.487  0.2876E+01  0.2876E+01  0.1821E+01  0.1821E+01
    -10.436  0.1783E+01  0.1783E+01  0.1911E+01  0.1911E+01
    -10.386  0.9719E+00  0.9719E+00  0.1961E+01  0.1961E+01
    -10.335  0.4661E+00  0.4661E+00  0.1985E+01  0.1985E+01
    -10.284  0.1966E+00  0.1966E+00  0.1995E+01  0.1995E+01
    -10.233  0.7296E-01  0.7296E-01  0.1998E+01  0.1998E+01
    -10.182  0.2391E-01  0.2391E-01  0.2000E+01  0.2000E+01
    -10.131  0.7409E-02  0.7409E-02  0.2000E+01  0.2000E+01
    -10.080  0.4392E-02  0.4392E-02  0.2000E+01  0.2000E+01
    -10.029  0.1120E-01  0.1120E-01  0.2001E+01  0.2001E+01
     -9.978  0.3861E-01  0.3861E-01  0.2003E+01  0.2003E+01
     -9.927  0.1208E+00  0.1208E+00  0.2009E+01  0.2009E+01
     -9.876  0.3331E+00  0.3331E+00  0.2026E+01  0.2026E+01
     -9.825  0.8079E+00  0.8079E+00  0.2067E+01  0.2067E+01
     -9.774  0.1723E+01  0.1723E+01  0.2155E+01  0.2155E+01
     -9.724  0.3233E+01  0.3233E+01  0.2319E+01  0.2319E+01
     -9.673  0.5336E+01  0.5336E+01  0.2591E+01  0.2591E+01
     -9.622  0.7745E+01  0.7745E+01  0.2986E+01  0.2986E+01
     -9.571  0.9889E+01  0.9889E+01  0.3489E+01  0.3489E+01
     -9.520  0.1111E+02  0.1111E+02  0.4055E+01  0.4055E+01
     -9.469  0.1097E+02  0.1097E+02  0.4613E+01  0.4613E+01
     -9.418  0.9533E+01  0.9533E+01  0.5099E+01  0.5099E+01
     -9.367  0.7286E+01  0.7286E+01  0.5470E+01  0.5470E+01
     -9.316  0.4898E+01  0.4898E+01  0.5719E+01  0.5719E+01
     -9.265  0.2897E+01  0.2897E+01  0.5867E+01  0.5867E+01
     -9.214  0.1507E+01  0.1507E+01  0.5944E+01  0.5944E+01
     -9.163  0.6892E+00  0.6892E+00  0.5979E+01  0.5979E+01
     -9.112  0.2773E+00  0.2773E+00  0.5993E+01  0.5993E+01
     -9.061  0.9816E-01  0.9816E-01  0.5998E+01  0.5998E+01
     -9.011  0.3055E-01  0.3056E-01  0.5999E+01  0.5999E+01
     -8.960  0.8365E-02  0.8365E-02  0.6000E+01  0.6000E+01
     -8.909  0.2014E-02  0.2014E-02  0.6000E+01  0.6000E+01
     -8.858  0.4266E-03  0.4266E-03  0.6000E+01  0.6000E+01
     -8.807  0.7944E-04  0.7944E-04  0.6000E+01  0.6000E+01
     -8.756  0.1301E-04  0.1301E-04  0.6000E+01  0.6000E+01
     -8.705  0.1874E-05  0.1874E-05  0.6000E+01  0.6000E+01
     -8.654  0.2374E-06  0.2374E-06  0.6000E+01  0.6000E+01
     -8.603  0.2644E-07  0.2644E-07  0.6000E+01  0.6000E+01
     -8.552  0.2590E-08  0.2590E-08  0.6000E+01  0.6000E+01
     -8.501  0.2230E-09  0.2231E-09  0.6000E+01  0.6000E+01
     -8.450  0.1689E-10  0.1689E-10  0.6000E+01  0.6000E+01
     -8.399  0.1125E-11  0.1125E-11  0.6000E+01  0.6000E+01
     -8.348  0.6976E-13  0.6976E-13  0.6000E+01  0.6000E+01
     -8.298  0.0000E+00  0.0000E+00  0.6000E+01  0.6000E+01
     -8.247  0.0000E+00  0.0000E+00  0.6000E+01  0.6000E+01
     -8.196  0.0000E+00  0.0000E+00  0.6000E+01  0.6000E+01
     -8.145  0.0000E+00  0.0000E+00  0.6000E+01  0.6000E+01
     -8.094  0.0000E+00  0.0000E+00  0.6000E+01  0.6000E+01
     -8.043  0.0000E+00  0.0000E+00  0.6000E+01  0.6000E+01
     -7.992  0.0000E+00  0.0000E+00  0.6000E+01  0.6000E+01
     -7.941  0.0000E+00  0.0000E+00  0.6000E+01  0.6000E+01
     -7.890  0.0000E+00  0.0000E+00  0.6000E+01  0.6000E+01
     -7.839  0.0000E+00  0.0000E+00  0.6000E+01  0.6000E+01
     -7.788  0.0000E+00  0.0000E+00  0.6000E+01  0.6000E+01
     -7.737  0.0000E+00  0.0000E+00  0.6000E+01  0.6000E+01
     -7.686  0.0000E+00  0.0000E+00  0.6000E+01  0.6000E+01
     -7.636  0.0000E+00  0.0000E+00  0.6000E+01  0.6000E+01
     -7.585  0.0000E+00  0.0000E+00  0.6000E+01  0.6000E+01
     -7.534  0.0000E+00  0.0000E+00  0.6000E+01  0.6000E+01
     -7.483  0.0000E+00  0.0000E+00  0.6000E+01  0.6000E+01
     -7.432  0.0000E+00  0.0000E+00  0.6000E+01  0.6000E+01
     -7.381  0.0000E+00  0.0000E+00  0.6000E+01  0.6000E+01
     -7.330  0.0000E+00  0.0000E+00  0.6000E+01  0.6000E+01
     -7.279  0.4360E-14  0.4360E-14  0.6000E+01  0.6000E+01
     -7.228  0.4360E-13  0.4360E-13  0.6000E+01  0.6000E+01
     -7.177  0.7804E-12  0.7804E-12  0.6000E+01  0.6000E+01
     -7.126  0.1196E-10  0.1196E-10  0.6000E+01  0.6000E+01
     -7.075  0.1605E-09  0.1605E-09  0.6000E+01  0.6000E+01
     -7.024  0.1895E-08  0.1895E-08  0.6000E+01  0.6000E+01
     -6.973  0.1968E-07  0.1968E-07  0.6000E+01  0.6000E+01
     -6.923  0.1796E-06  0.1796E-06  0.6000E+01  0.6000E+01
     -6.872  0.1442E-05  0.1442E-05  0.6000E+01  0.6000E+01
     -6.821  0.1018E-04  0.1018E-04  0.6000E+01  0.6000E+01
     -6.770  0.6322E-04  0.6321E-04  0.6000E+01  0.6000E+01
     -6.719  0.3452E-03  0.3452E-03  0.6000E+01  0.6000E+01
     -6.668  0.1657E-02  0.1657E-02  0.6000E+01  0.6000E+01
     -6.617  0.6999E-02  0.6999E-02  0.6000E+01  0.6000E+01
     -6.566  0.2600E-01  0.2600E-01  0.6002E+01  0.6002E+01
     -6.515  0.8492E-01  0.8492E-01  0.6006E+01  0.6006E+01
     -6.464  0.2440E+00  0.2440E+00  0.6019E+01  0.6019E+01
     -6.413  0.6166E+00  0.6166E+00  0.6050E+01  0.6050E+01
     -6.362  0.1371E+01  0.1371E+01  0.6120E+01  0.6120E+01
     -6.311  0.2679E+01  0.2679E+01  0.6256E+01  0.6256E+01
     -6.260  0.4608E+01  0.4608E+01  0.6491E+01  0.6491E+01
     -6.210  0.6969E+01  0.6969E+01  0.6846E+01  0.6846E+01
     -6.159  0.9272E+01  0.9272E+01  0.7318E+01  0.7318E+01
     -6.108  0.1085E+02  0.1085E+02  0.7871E+01  0.7871E+01
     -6.057  0.1117E+02  0.1117E+02  0.8439E+01  0.8439E+01
     -6.006  0.1011E+02  0.1011E+02  0.8954E+01  0.8954E+01
     -5.955  0.8054E+01  0.8054E+01  0.9365E+01  0.9365E+01
     -5.904  0.5642E+01  0.5642E+01  0.9652E+01  0.9652E+01
     -5.853  0.3476E+01  0.3476E+01  0.9829E+01  0.9829E+01
     -5.802  0.1884E+01  0.1884E+01  0.9925E+01  0.9925E+01
     -5.751  0.8982E+00  0.8982E+00  0.9971E+01  0.9971E+01
     -5.700  0.3766E+00  0.3766E+00  0.9990E+01  0.9990E+01
     -5.649  0.1389E+00  0.1389E+00  0.9997E+01  0.9997E+01
     -5.598  0.4505E-01  0.4505E-01  0.9999E+01  0.9999E+01
     -5.547  0.1285E-01  0.1285E-01  0.1000E+02  0.1000E+02
     -5.497  0.3225E-02  0.3225E-02  0.1000E+02  0.1000E+02
     -5.446  0.7117E-03  0.7117E-03  0.1000E+02  0.1000E+02
     -5.395  0.1381E-03  0.1381E-03  0.1000E+02  0.1000E+02
     -5.344  0.2357E-04  0.2358E-04  0.1000E+02  0.1000E+02
     -5.293  0.3538E-05  0.3539E-05  0.1000E+02  0.1000E+02
     -5.242  0.4671E-06  0.4671E-06  0.1000E+02  0.1000E+02
     -5.191  0.5421E-07  0.5422E-07  0.1000E+02  0.1000E+02
     -5.140  0.5534E-08  0.5534E-08  0.1000E+02  0.1000E+02
     -5.089  0.4967E-09  0.4967E-09  0.1000E+02  0.1000E+02
     -5.038  0.3920E-10  0.3920E-10  0.1000E+02  0.1000E+02
     -4.987  0.2721E-11  0.2721E-11  0.1000E+02  0.1000E+02
     -4.936  0.1657E-12  0.1657E-12  0.1000E+02  0.1000E+02
     -4.885  0.8720E-14  0.8720E-14  0.1000E+02  0.1000E+02
     -4.835  0.0000E+00  0.0000E+00  0.1000E+02  0.1000E+02
     -4.784  0.0000E+00  0.0000E+00  0.1000E+02  0.1000E+02
     -4.733  0.0000E+00  0.0000E+00  0.1000E+02  0.1000E+02
     -4.682  0.0000E+00  0.0000E+00  0.1000E+02  0.1000E+02
     -4.631  0.0000E+00  0.0000E+00  0.1000E+02  0.1000E+02
     -4.580  0.0000E+00  0.0000E+00  0.1000E+02  0.1000E+02
     -4.529  0.0000E+00  0.0000E+00  0.1000E+02  0.1000E+02
     -4.478  0.0000E+00  0.0000E+00  0.1000E+02  0.1000E+02
     -4.427  0.0000E+00  0.0000E+00  0.1000E+02  0.1000E+02
     -4.376  0.0000E+00  0.0000E+00  0.1000E+02  0.1000E+02
     -4.325  0.0000E+00  0.0000E+00  0.1000E+02  0.1000E+02
     -4.274  0.0000E+00  0.0000E+00  0.1000E+02  0.1000E+02
     -4.223  0.0000E+00  0.0000E+00  0.1000E+02  0.1000E+02
     -4.172  0.0000E+00  0.0000E+00  0.1000E+02  0.1000E+02
     -4.122  0.0000E+00  0.0000E+00  0.1000E+02  0.1000E+02
     -4.071  0.0000E+00  0.0000E+00  0.1000E+02  0.1000E+02
     -4.020  0.0000E+00  0.0000E+00  0.1000E+02  0.1000E+02
     -3.969  0.0000E+00  0.0000E+00  0.1000E+02  0.1000E+02
     -3.918  0.0000E+00  0.0000E+00  0.1000E+02  0.1000E+02
     -3.867  0.0000E+00  0.0000E+00  0.1000E+02  0.1000E+02
     -3.816  0.0000E+00  0.0000E+00  0.1000E+02  0.1000E+02
     -3.765  0.0000E+00  0.0000E+00  0.1000E+02  0.1000E+02
     -3.714  0.0000E+00  0.0000E+00  0.1000E+02  0.1000E+02
     -3.663  0.0000E+00  0.0000E+00  0.1000E+02  0.1000E+02
     -3.612  0.0000E+00  0.0000E+00  0.1000E+02  0.1000E+02
     -3.561  0.0000E+00  0.0000E+00  0.1000E+02  0.1000E+02
     -3.510  0.0000E+00  0.0000E+00  0.1000E+02  0.1000E+02
     -3.459  0.0000E+00  0.0000E+00  0.1000E+02  0.1000E+02
     -3.409  0.0000E+00  0.0000E+00  0.1000E+02  0.1000E+02
     -3.358  0.0000E+00  0.0000E+00  0.1000E+02  0.1000E+02
     -3.307  0.0000E+00  0.0000E+00  0.1000E+02  0.1000E+02
     -3.256  0.0000E+00  0.0000E+00  0.1000E+02  0.1000E+02
     -3.205  0.0000E+00  0.0000E+00  0.1000E+02  0.1000E+02
     -3.154  0.0000E+00  0.0000E+00  0.1000E+02  0.1000E+02
     -3.103  0.0000E+00  0.0000E+00  0.1000E+02  0.1000E+02
     -3.052  0.0000E+00  0.0000E+00  0.1000E+02  0.1000E+02
     -3.001  0.0000E+00  0.0000E+00  0.1000E+02  0.1000E+02
     -2.950  0.0000E+00  0.0000E+00  0.1000E+02  0.1000E+02
     -2.899  0.0000E+00  0.0000E+00  0.1000E+02  0.1000E+02
     -2.848  0.0000E+00  0.0000E+00  0.1000E+02  0.1000E+02
     -2.797  0.0000E+00  0.0000E+00  0.1000E+02  0.1000E+02
     -2.747  0.0000E+00  0.0000E+00  0.1000E+02  0.1000E+02
     -2.696  0.0000E+00  0.0000E+00  0.1000E+02  0.1000E+02
     -2.645  0.0000E+00  0.0000E+00  0.1000E+02  0.1000E+02
     -2.594  0.0000E+00  0.0000E+00  0.1000E+02  0.1000E+02
     -2.543  0.0000E+00  0.0000E+00  0.1000E+02  0.1000E+02
     -2.492  0.0000E+00  0.0000E+00  0.1000E+02  0.1000E+02
     -2.441  0.0000E+00  0.0000E+00  0.1000E+02  0.1000E+02
     -2.390  0.0000E+00  0.0000E+00  0.1000E+02  0.1000E+02
     -2.339  0.0000E+00  0.0000E+00  0.1000E+02  0.1000E+02
     -2.288  0.0000E+00  0.0000E+00  0.1000E+02  0.1000E+02
     -2.237  0.0000E+00  0.0000E+00  0.1000E+02  0.1000E+02
     -2.186  0.0000E+00  0.0000E+00  0.1000E+02  0.1000E+02
     -2.135  0.0000E+00  0.0000E+00  0.1000E+02  0.1000E+02
     -2.084  0.0000E+00  0.0000E+00  0.1000E+02  0.1000E+02
     -2.034  0.0000E+00  0.0000E+00  0.1000E+02  0.1000E+02
     -1.983  0.0000E+00  0.0000E+00  0.1000E+02  0.1000E+02
     -1.932  0.0000E+00  0.0000E+00  0.1000E+02  0.1000E+02
     -1.881  0.0000E+00  0.0000E+00  0.1000E+02  0.1000E+02
     -1.830  0.0000E+00  0.0000E+00  0.1000E+02  0.1000E+02
     -1.779  0.8720E-14  0.8720E-14  0.1000E+02  0.1000E+02
     -1.728  0.1831E-12  0.1831E-12  0.1000E+02  0.1000E+02
     -1.677  0.2960E-11  0.2960E-11  0.1000E+02  0.1000E+02
     -1.626  0.4252E-10  0.4252E-10  0.1000E+02  0.1000E+02
     -1.575  0.5366E-09  0.5366E-09  0.1000E+02  0.1000E+02
     -1.524  0.5955E-08  0.5955E-08  0.1000E+02  0.1000E+02
     -1.473  0.5811E-07  0.5810E-07  0.1000E+02  0.1000E+02
     -1.422  0.4986E-06  0.4986E-06  0.1000E+02  0.1000E+02
     -1.371  0.3762E-05  0.3762E-05  0.1000E+02  0.1000E+02
     -1.321  0.2496E-04  0.2496E-04  0.1000E+02  0.1000E+02
     -1.270  0.1457E-03  0.1457E-03  0.1000E+02  0.1000E+02
     -1.219  0.7476E-03  0.7476E-03  0.1000E+02  0.1000E+02
     -1.168  0.3374E-02  0.3374E-02  0.1000E+02  0.1000E+02
     -1.117  0.1339E-01  0.1339E-01  0.1000E+02  0.1000E+02
     -1.066  0.4676E-01  0.4676E-01  0.1000E+02  0.1000E+02
     -1.015  0.1436E+00  0.1436E+00  0.1001E+02  0.1001E+02
     -0.964  0.3878E+00  0.3877E+00  0.1003E+02  0.1003E+02
     -0.913  0.9211E+00  0.9211E+00  0.1008E+02  0.1008E+02
     -0.862  0.1924E+01  0.1924E+01  0.1018E+02  0.1018E+02
     -0.811  0.3537E+01  0.3537E+01  0.1036E+02  0.1036E+02
     -0.760  0.5717E+01  0.5717E+01  0.1065E+02  0.1065E+02
     -0.709  0.8132E+01  0.8131E+01  0.1106E+02  0.1106E+02
     -0.658  0.1018E+02  0.1018E+02  0.1158E+02  0.1158E+02
     -0.608  0.1124E+02  0.1124E+02  0.1215E+02  0.1215E+02
     -0.557  0.1100E+02  0.1100E+02  0.1271E+02  0.1271E+02
     -0.506  0.9706E+01  0.9704E+01  0.1321E+02  0.1321E+02
     -0.455  0.8091E+01  0.8088E+01  0.1362E+02  0.1362E+02
     -0.404  0.7076E+01  0.7071E+01  0.1398E+02  0.1398E+02
     -0.353  0.7368E+01  0.7359E+01  0.1435E+02  0.1435E+02
     -0.302  0.9143E+01  0.9132E+01  0.1482E+02  0.1482E+02
     -0.251  0.1193E+02  0.1192E+02  0.1543E+02  0.1542E+02
     -0.200  0.1475E+02  0.1474E+02  0.1618E+02  0.1618E+02
     -0.149  0.1648E+02  0.1648E+02  0.1702E+02  0.1701E+02
     -0.098  0.1637E+02  0.1637E+02  0.1785E+02  0.1785E+02
     -0.047  0.1439E+02  0.1439E+02  0.1858E+02  0.1858E+02
      0.004  0.1116E+02  0.1118E+02  0.1915E+02  0.1915E+02
      0.054  0.7651E+01  0.7663E+01  0.1954E+02  0.1954E+02
      0.105  0.4638E+01  0.4648E+01  0.1978E+02  0.1978E+02
      0.156  0.2518E+01  0.2524E+01  0.1991E+02  0.1991E+02
      0.207  0.1314E+01  0.1317E+01  0.1997E+02  0.1997E+02
      0.258  0.8906E+00  0.8902E+00  0.2002E+02  0.2002E+02
      0.309  0.1138E+01  0.1134E+01  0.2008E+02  0.2008E+02
      0.360  0.2051E+01  0.2043E+01  0.2018E+02  0.2018E+02
      0.411  0.3655E+01  0.3643E+01  0.2037E+02  0.2037E+02
      0.462  0.5846E+01  0.5831E+01  0.2067E+02  0.2066E+02
      0.513  0.8250E+01  0.8236E+01  0.2109E+02  0.2108E+02
      0.564  0.1025E+02  0.1024E+02  0.2161E+02  0.2160E+02
      0.615  0.1120E+02  0.1119E+02  0.2218E+02  0.2217E+02
      0.666  0.1076E+02  0.1077E+02  0.2273E+02  0.2272E+02
      0.717  0.9097E+01  0.9110E+01  0.2319E+02  0.2319E+02
      0.767  0.6765E+01  0.6779E+01  0.2353E+02  0.2353E+02
      0.818  0.4425E+01  0.4438E+01  0.2376E+02  0.2376E+02
      0.869  0.2546E+01  0.2555E+01  0.2389E+02  0.2389E+02
      0.920  0.1288E+01  0.1294E+01  0.2395E+02  0.2395E+02
      0.971  0.5735E+00  0.5765E+00  0.2398E+02  0.2398E+02
      1.022  0.2246E+00  0.2259E+00  0.2399E+02  0.2399E+02
      1.073  0.7733E-01  0.7785E-01  0.2400E+02  0.2400E+02
      1.124  0.2342E-01  0.2360E-01  0.2400E+02  0.2400E+02
      1.175  0.6240E-02  0.6292E-02  0.2400E+02  0.2400E+02
      1.226  0.1462E-02  0.1475E-02  0.2400E+02  0.2400E+02
      1.277  0.3013E-03  0.3042E-03  0.2400E+02  0.2400E+02
      1.328  0.5461E-04  0.5518E-04  0.2400E+02  0.2400E+02
      1.379  0.8703E-05  0.8801E-05  0.2400E+02  0.2400E+02
      1.430  0.1220E-05  0.1235E-05  0.2400E+02  0.2400E+02
      1.480  0.1504E-06  0.1523E-06  0.2400E+02  0.2400E+02
      1.531  0.1630E-07  0.1652E-07  0.2400E+02  0.2400E+02
      1.582  0.1554E-08  0.1576E-08  0.2400E+02  0.2400E+02
      1.633  0.1302E-09  0.1322E-09  0.2400E+02  0.2400E+02
      1.684  0.9596E-11  0.9749E-11  0.2400E+02  0.2400E+02
      1.735  0.6235E-12  0.6322E-12  0.2400E+02  0.2400E+02
      1.786  0.3488E-13  0.3924E-13  0.2400E+02  0.2400E+02
      1.837  0.0000E+00  0.0000E+00  0.2400E+02  0.2400E+02
      1.888  0.0000E+00  0.0000E+00  0.2400E+02  0.2400E+02
      1.939  0.0000E+00  0.0000E+00  0.2400E+02  0.2400E+02
      1.990  0.0000E+00  0.0000E+00  0.2400E+02  0.2400E+02
      2.041  0.0000E+00  0.0000E+00  0.2400E+02  0.2400E+02
      2.092  0.0000E+00  0.0000E+00  0.2400E+02  0.2400E+02
      2.142  0.0000E+00  0.0000E+00  0.2400E+02  0.2400E+02
      2.193  0.0000E+00  0.0000E+00  0.2400E+02  0.2400E+02
      2.244  0.0000E+00  0.0000E+00  0.2400E+02  0.2400E+02
      2.295  0.0000E+00  0.0000E+00  0.2400E+02  0.2400E+02
      2.346  0.0000E+00  0.0000E+00  0.2400E+02  0.2400E+02
      2.397  0.0000E+00  0.0000E+00  0.2400E+02  0.2400E+02
      2.448  0.0000E+00  0.0000E+00  0.2400E+02  0.2400E+02
      2.499  0.0000E+00  0.0000E+00  0.2400E+02  0.2400E+02
      2.550  0.0000E+00  0.0000E+00  0.2400E+02  0.2400E+02
      2.601  0.0000E+00  0.0000E+00  0.2400E+02  0.2400E+02
