    8    8    1    2
  0.3150000E+03  0.1500000E-08  0.1500000E-08  0.1120000E-08  0.5000000E-15
  1.000000000000000E-004
  CAR 
 unknown system                          
      8      1     12
 
  0.0000000E+00  0.0000000E+00  0.0000000E+00  0.1000000E+01
    1      -10.677281    -10.677280   1.000000   1.000000
    2       -9.524652     -9.524651   1.000000   1.000000
    3       -9.524652     -9.524651   1.000000   1.000000
    4       -6.096202     -6.096201   0.500000   0.500000
    5       -6.096202     -6.096201   0.500000   0.500000
    6       -0.620643     -0.620642   0.000000   0.000000
    7       -0.620643     -0.620642   0.000000   0.000000
    8       -0.165972     -0.165851   0.000000   0.000000
    9       -0.165972     -0.165851   0.000000   0.000000
   10       -0.118967     -0.118690   0.000000   0.000000
   11        0.597209      0.597634   0.000000   0.000000
   12        0.600654      0.600843   0.000000   0.000000
