       N       E                     dE             d eps       ncg     rms          rms(c)
DAV:   1     0.776172454102E+01    0.77617E+01   -0.11044E+03    56   0.187E+02
DAV:   2    -0.160766080076E+02   -0.23838E+02   -0.23297E+02    76   0.537E+01
DAV:   3    -0.180835959077E+02   -0.20070E+01   -0.18214E+01    60   0.175E+01
DAV:   4    -0.181576105641E+02   -0.74015E-01   -0.71198E-01    72   0.304E+00
DAV:   5    -0.181586154810E+02   -0.10049E-02   -0.10007E-02    72   0.331E-01    0.190E+00
DAV:   6    -0.181266223655E+02    0.31993E-01   -0.16835E-02    48   0.646E-01    0.117E+00
DAV:   7    -0.180889327736E+02    0.37690E-01   -0.64127E-02    48   0.121E+00    0.157E-01
DAV:   8    -0.180910031535E+02   -0.20704E-02   -0.24154E-03    48   0.239E-01    0.425E-02
DAV:   9    -0.180913995893E+02   -0.39644E-03   -0.15115E-04    56   0.556E-02    0.266E-02
DAV:  10    -0.180926570061E+02   -0.12574E-02   -0.15496E-04    48   0.588E-02    0.175E-02
DAV:  11    -0.180925852265E+02    0.71780E-04   -0.23196E-04    48   0.595E-02    0.897E-03
DAV:  12    -0.180941820435E+02   -0.15968E-02   -0.16013E-04    48   0.467E-02    0.597E-03
DAV:  13    -0.180948939759E+02   -0.71193E-03   -0.74906E-05    48   0.322E-02    0.387E-03
DAV:  14    -0.180951828521E+02   -0.28888E-03   -0.10913E-05    48   0.137E-02    0.222E-03
DAV:  15    -0.180953725280E+02   -0.18968E-03   -0.90047E-06    48   0.120E-02    0.125E-03
DAV:  16    -0.180953869961E+02   -0.14468E-04   -0.13283E-07    48   0.169E-03    0.845E-04
DAV:  17    -0.180954230114E+02   -0.36015E-04   -0.65546E-07    48   0.352E-03    0.233E-04
DAV:  18    -0.180954240879E+02   -0.10766E-05   -0.18439E-08    48   0.769E-04    0.136E-04
DAV:  19    -0.180954268140E+02   -0.27260E-05   -0.15392E-08    48   0.667E-04    0.811E-05
DAV:  20    -0.180954282853E+02   -0.14713E-05   -0.10090E-08    48   0.684E-04    0.360E-05
DAV:  21    -0.180954286526E+02   -0.36728E-06   -0.93950E-10    48   0.196E-04
   1 F= -.18095429E+02 E0= -.17982591E+02  d E =-.225676E+00  mag=    -0.0000
