 vasp.5.4.4.18Apr17-6-g9f103f2a35 (build Aug 24 2024 05:40:03) complex          
  
 executed on           IFC22_IMPI date 2024.11.22  21:40:47
 running on    4 total cores
 distrk:  each k-point on    4 cores,    1 groups
 distr:  one band on NCORES_PER_BAND=   1 cores,    4 groups


--------------------------------------------------------------------------------------------------------


 INCAR:
 POTCAR:    PAW_PBE H 15Jun2001                   
 POTCAR:    PAW_PBE H 15Jun2001                   
   VRHFIN =H: ultrasoft test                                                    
   LEXCH  = PE                                                                  
   EATOM  =    12.4884 eV,    0.9179 Ry                                         
                                                                                
   TITEL  = PAW_PBE H 15Jun2001                                                 
   LULTRA =        F    use ultrasoft PP ?                                      
   IUNSCR =        0    unscreen: 0-lin 1-nonlin 2-no                           
   RPACOR =    0.000    partial core radius                                     
   POMASS =    1.000; ZVAL   =    1.000    mass and valenz                      
   RCORE  =    1.100    outmost cutoff radius                                   
   RWIGS  =    0.700; RWIGS  =    0.370    wigner-seitz radius (au A)           
   ENMAX  =  250.000; ENMIN  =  200.000 eV                                      
   RCLOC  =    0.701    cutoff for local pot                                    
   LCOR   =        T    correct aug charges                                     
   LPAW   =        T    paw PP                                                  
   EAUG   =  400.000                                                            
   RMAX   =    1.123    core radius for proj-oper                               
   RAUG   =    1.200    factor for augmentation sphere                          
   RDEP   =    1.112    radius for radial grids                                 
   RDEPT  =    0.926    core radius for aug-charge                              
                                                                                
   Atomic configuration                                                         
    2 entries                                                                   
     n  l   j            E        occ.                                          
     1  0  0.50        -6.4927   1.0000                                         
     2  1  0.50        -3.4015   0.0000                                         
   Description                                                                  
     l       E           TYP  RCUT    TYP  RCUT                                 
     0     -6.4927494     23  1.100                                             
     0      6.8029130     23  1.100                                             
     1     -4.0817478     23  1.100                                             
  local pseudopotential read in
  atomic valenz-charges read in
  non local Contribution for L=           0  read in
    real space projection operators read in
  non local Contribution for L=           0  read in
    real space projection operators read in
  non local Contribution for L=           1  read in
    real space projection operators read in
    PAW grid and wavefunctions read in
 
   number of l-projection  operators is LMAX  =           3
   number of lm-projection operators is LMMAX =           5
 
  PAW_PBE H 15Jun2001                   :
 energy of atom  1       EATOM=  -12.4884
 kinetic energy error for atom=    0.0426 (will be added to EATOM!!)
 
 
 POSCAR: H8                                      
  positions in direct lattice
  No initial velocities read in
 exchange correlation table for  LEXCH =        8
   RHO(1)=    0.500       N(1)  =     2000
   RHO(2)=  100.500       N(2)  =     4000
 


--------------------------------------------------------------------------------------------------------


 ion  position               nearest neighbor table
   1  0.000  0.000  0.000-
   2  0.000  0.000  0.125-
   3  0.000  0.000  0.250-
   4  0.000  0.000  0.375-
   5  0.000  0.000  0.500-
   6  0.000  0.000  0.625-
   7  0.000  0.000  0.750-
   8  0.000  0.000  0.875-
 
  LATTYP: Found a simple tetragonal cell.
 ALAT       =    15.0000000000
 C/A-ratio  =     0.7466666667
  
  Lattice vectors:
  
 A1 = (  15.0000000000,   0.0000000000,   0.0000000000)
 A2 = (   0.0000000000,  15.0000000000,   0.0000000000)
 A3 = (   0.0000000000,   0.0000000000,  11.2000000000)


Analysis of symmetry for initial positions (statically):
=====================================================================
 Subroutine PRICEL returns following result:
 
  LATTYP: Found a simple tetragonal cell.
 ALAT       =    15.0000000000
 C/A-ratio  =     0.0933333333
  
  Lattice vectors:
  
 A1 = (  15.0000000000,   0.0000000000,   0.0000000000)
 A2 = (   0.0000000000,  15.0000000000,   0.0000000000)
 A3 = (   0.0000000000,   0.0000000000,   1.4000000000)
 
   8 primitive cells build up your supercell.
 

 Routine SETGRP: Setting up the symmetry group for a 
 simple tetragonal supercell.


 Subroutine GETGRP returns: Found 16 space group operations
 (whereof 16 operations were pure point group operations)
 out of a pool of 16 trial point group operations.


The static configuration has the point symmetry D_4h.


Analysis of symmetry for dynamics (positions and initial velocities):
=====================================================================
 Subroutine PRICEL returns following result:
 
  LATTYP: Found a simple tetragonal cell.
 ALAT       =    15.0000000000
 C/A-ratio  =     0.0933333333
  
  Lattice vectors:
  
 A1 = (  15.0000000000,   0.0000000000,   0.0000000000)
 A2 = (   0.0000000000,  15.0000000000,   0.0000000000)
 A3 = (   0.0000000000,   0.0000000000,   1.4000000000)
 
   8 primitive cells build up your supercell.
 

 Routine SETGRP: Setting up the symmetry group for a 
 simple tetragonal supercell.


 Subroutine GETGRP returns: Found 16 space group operations
 (whereof 16 operations were pure point group operations)
 out of a pool of 16 trial point group operations.


The dynamic configuration has the point symmetry D_4h.


Analysis of structural, dynamic, and magnetic symmetry:
=====================================================================
 Subroutine PRICEL returns following result:
 
  LATTYP: Found a simple tetragonal cell.
 ALAT       =    15.0000000000
 C/A-ratio  =     0.0933333333
  
  Lattice vectors:
  
 A1 = (  15.0000000000,   0.0000000000,   0.0000000000)
 A2 = (   0.0000000000,  15.0000000000,   0.0000000000)
 A3 = (   0.0000000000,   0.0000000000,   1.4000000000)
 
   8 primitive cells build up your supercell.
 

 Routine SETGRP: Setting up the symmetry group for a 
 simple tetragonal supercell.


 Subroutine GETGRP returns: Found 16 space group operations
 (whereof 16 operations were pure point group operations)
 out of a pool of 16 trial point group operations.


The magnetic configuration has the point symmetry D_4h.


 Subroutine INISYM returns: Found 16 space group operations
 (whereof 16 operations are pure point group operations),
 and found     8 'primitive' translations

 
 
 KPOINTS: Automatic kpoint scheme                 

Automatic generation of k-mesh.
Space group operators:
 irot       det(A)        alpha          n_x          n_y          n_z        tau_x        tau_y        tau_z
    1     1.000000     0.000000     1.000000     0.000000     0.000000     0.000000     0.000000     0.000000
    2    -1.000000     0.000000     1.000000     0.000000     0.000000     0.000000     0.000000     0.000000
    3     1.000000    90.000000     0.000000     0.000000    -1.000000     0.000000     0.000000     0.000000
    4    -1.000000    90.000000     0.000000     0.000000    -1.000000     0.000000     0.000000     0.000000
    5     1.000000   180.000000    -0.000000    -0.000000     1.000000     0.000000     0.000000     0.000000
    6    -1.000000   180.000000    -0.000000    -0.000000     1.000000     0.000000     0.000000     0.000000
    7     1.000000    90.000000    -0.000000    -0.000000     1.000000     0.000000     0.000000     0.000000
    8    -1.000000    90.000000    -0.000000    -0.000000     1.000000     0.000000     0.000000     0.000000
    9     1.000000   180.000000     0.000000     1.000000     0.000000     0.000000     0.000000     0.000000
   10    -1.000000   180.000000     0.000000     1.000000     0.000000     0.000000     0.000000     0.000000
   11     1.000000   180.000000     0.707107     0.707107     0.000000     0.000000     0.000000     0.000000
   12    -1.000000   180.000000     0.707107     0.707107     0.000000     0.000000     0.000000     0.000000
   13     1.000000   180.000000     1.000000    -0.000000     0.000000     0.000000     0.000000     0.000000
   14    -1.000000   180.000000     1.000000    -0.000000     0.000000     0.000000     0.000000     0.000000
   15     1.000000   180.000000     0.707107    -0.707107     0.000000     0.000000     0.000000     0.000000
   16    -1.000000   180.000000     0.707107    -0.707107     0.000000     0.000000     0.000000     0.000000
 
 Subroutine IBZKPT returns following result:
 ===========================================
 
 Found      1 irreducible k-points:
 
 Following reciprocal coordinates:
            Coordinates               Weight
  0.000000  0.000000  0.000000      1.000000
 
 Following cartesian coordinates:
            Coordinates               Weight
  0.000000  0.000000  0.000000      1.000000
 


--------------------------------------------------------------------------------------------------------




 Dimension of arrays:
   k-points           NKPTS =      1   k-points in BZ     NKDIM =      1   number of bands    NBANDS=     12
   number of dos      NEDOS =    301   number of ions     NIONS =      8
   non local maximal  LDIM  =      3   non local SUM 2l+1 LMDIM =      5
   total plane-waves  NPLWV = 196608
   max r-space proj   IRMAX =      1   max aug-charges    IRDMAX=    579
   dimension x,y,z NGX =    64 NGY =   64 NGZ =   48
   dimension x,y,z NGXF=   128 NGYF=  128 NGZF=   96
   support grid    NGXF=   128 NGYF=  128 NGZF=   96
   ions per type =               8
   NGX,Y,Z   is equivalent  to a cutoff of   7.09,  7.09,  7.12 a.u.
   NGXF,Y,Z  is equivalent  to a cutoff of  14.19, 14.19, 14.25 a.u.

 SYSTEM =  unknown system                          
 POSCAR =  H8                                      

 Startparameter for this run:
   NWRITE =      2    write-flag & timer
   PREC   = normal    normal or accurate (medium, high low for compatibility)
   ISTART =      0    job   : 0-new  1-cont  2-samecut
   ICHARG =      2    charge: 1-file 2-atom 10-const
   ISPIN  =      2    spin polarized calculation?
   LNONCOLLINEAR =      F non collinear calculations
   LSORBIT =      F    spin-orbit coupling
   INIWAV =      1    electr: 0-lowe 1-rand  2-diag
   LASPH  =      F    aspherical Exc in radial PAW
   METAGGA=      F    non-selfconsistent MetaGGA calc.

 Electronic Relaxation 1
   ENCUT  =  300.0 eV  22.05 Ry    4.70 a.u.  21.18 21.18 15.82*2*pi/ulx,y,z
   ENINI  =  300.0     initial cutoff
   ENAUG  =  400.0 eV  augmentation charge cutoff
   NELM   =    100;   NELMIN=  2; NELMDL= -5     # of ELM steps 
   EDIFF  = 0.1E-05   stopping-criterion for ELM
   LREAL  =      F    real-space projection
   NLSPLINE    = F    spline interpolate recip. space projectors
   LCOMPAT=      F    compatible to vasp.4.4
   GGA_COMPAT  = T    GGA compatible to vasp.4.4-vasp.4.6
   LMAXPAW     = -100 max onsite density
   LMAXMIX     =    2 max onsite mixed and CHGCAR
   VOSKOWN=      0    Vosko Wilk Nusair interpolation
   ROPT   =    0.00000
 Ionic relaxation
   EDIFFG = 0.1E-04   stopping-criterion for IOM
   NSW    =      0    number of steps for IOM
   NBLOCK =      1;   KBLOCK =      1    inner block; outer block 
   IBRION =     -1    ionic relax: 0-MD 1-quasi-New 2-CG
   NFREE  =      0    steps in history (QN), initial steepest desc. (CG)
   ISIF   =      2    stress and relaxation
   IWAVPR =     10    prediction:  0-non 1-charg 2-wave 3-comb
   ISYM   =      2    0-nonsym 1-usesym 2-fastsym
   LCORR  =      T    Harris-Foulkes like correction to forces

   POTIM  = 0.5000    time-step for ionic-motion
   TEIN   =    0.0    initial temperature
   TEBEG  =    0.0;   TEEND  =   0.0 temperature during run
   SMASS  =  -3.00    Nose mass-parameter (am)
   estimated Nose-frequenzy (Omega)   =  0.10E-29 period in steps =****** mass=  -0.514E-26a.u.
   SCALEE = 1.0000    scale energy and forces
   NPACO  =    256;   APACO  = 16.0  distance and # of slots for P.C.
   PSTRESS=    0.0 pullay stress

  Mass of Ions in am
   POMASS =   1.00
  Ionic Valenz
   ZVAL   =   1.00
  Atomic Wigner-Seitz radii
   RWIGS  =  -1.00
  virtual crystal weights 
   VCA    =   1.00
   NELECT =       8.0000    total number of electrons
   NUPDOWN=       0.0000    fix difference up-down

 DOS related values:
   EMIN   =  10.00;   EMAX   =-10.00  energy-range for DOS
   EFERMI =   0.00
   ISMEAR =     0;   SIGMA  =   0.20  broadening in eV -4-tet -1-fermi 0-gaus

 Electronic relaxation 2 (details)
   IALGO  =     38    algorithm
   LDIAG  =      T    sub-space diagonalisation (order eigenvalues)
   LSUBROT=      F    optimize rotation matrix (better conditioning)
   TURBO    =      0    0=normal 1=particle mesh
   IRESTART =      0    0=no restart 2=restart with 2 vectors
   NREBOOT  =      0    no. of reboots
   NMIN     =      0    reboot dimension
   EREF     =   0.00    reference energy to select bands
   IMIX   =      4    mixing-type and parameters
     AMIX     =   0.40;   BMIX     =  1.00
     AMIX_MAG =   1.60;   BMIX_MAG =  1.00
     AMIN     =   0.10
     WC   =   100.;   INIMIX=   1;  MIXPRE=   1;  MAXMIX= -45

 Intra band minimization:
   WEIMIN = 0.0000     energy-eigenvalue tresh-hold
   EBREAK =  0.21E-07  absolut break condition
   DEPER  =   0.30     relativ break condition  

   TIME   =   0.40     timestep for ELM

  volume/ion in A,a.u.               =     315.00      2125.72
  Fermi-wavevector in a.u.,A,eV,Ry     =   0.240605  0.454678  0.787652  0.057891
  Thomas-Fermi vector in A             =   1.045939
 
 Write flags
   LWAVE        =      F    write WAVECAR
   LDOWNSAMPLE  =      F    k-point downsampling of WAVECAR
   LCHARG       =      F    write CHGCAR
   LVTOT        =      F    write LOCPOT, total local potential
   LVHAR        =      F    write LOCPOT, Hartree potential only
   LELF         =      F    write electronic localiz. function (ELF)
   LORBIT       =      0    0 simple, 1 ext, 2 COOP (PROOUT), +10 PAW based schemes


 Dipole corrections
   LMONO  =      F    monopole corrections only (constant potential shift)
   LDIPOL =      F    correct potential (dipole corrections)
   IDIPOL =      0    1-x, 2-y, 3-z, 4-all directions 
   EPSILON=  1.0000000 bulk dielectric constant

 Exchange correlation treatment:
   GGA     =    --    GGA type
   LEXCH   =     8    internal setting for exchange type
   VOSKOWN=      0    Vosko Wilk Nusair interpolation
   LHFCALC =     F    Hartree Fock is set to
   LHFONE  =     F    Hartree Fock one center treatment
   AEXX    =    0.0000 exact exchange contribution

 Linear response parameters
   LEPSILON=     F    determine dielectric tensor
   LRPA    =     F    only Hartree local field effects (RPA)
   LNABLA  =     F    use nabla operator in PAW spheres
   LVEL    =     F    velocity operator in full k-point grid
   LINTERFAST=   F  fast interpolation
   KINTER  =     0    interpolate to denser k-point grid
   CSHIFT  =0.1000    complex shift for real part using Kramers Kronig
   OMEGAMAX=  -1.0    maximum frequency
   DEG_THRESHOLD= 0.2000000E-02 threshold for treating states as degnerate
   RTIME   =   -0.100 relaxation time in fs
  (WPLASMAI=    0.000 imaginary part of plasma frequency in eV, 0.658/RTIME)
   DFIELD  = 0.0000000 0.0000000 0.0000000 field for delta impulse in time
 
 Orbital magnetization related:
   ORBITALMAG=     F  switch on orbital magnetization
   LCHIMAG   =     F  perturbation theory with respect to B field
   DQ        =  0.001000  dq finite difference perturbation B field
   LLRAUG    =     F  two centre corrections for induced B field



--------------------------------------------------------------------------------------------------------


 Static calculation
 charge density and potential will be updated during run
 spin polarized calculation
 Variant of blocked Davidson
 Davidson routine will perform the subspace rotation
 perform sub-space diagonalisation
    after iterative eigenvector-optimisation
 modified Broyden-mixing scheme, WC =      100.0
 initial mixing is a Kerker type mixing with AMIX =  0.4000 and BMIX =      1.0000
 Hartree-type preconditioning will be used
 using additional bands            8
 reciprocal scheme for non local part
 calculate Harris-corrections to forces 
   (improved forces if not selfconsistent)
 use gradient corrections 
 use of overlap-Matrix (Vanderbilt PP)
 Gauss-broadening in eV      SIGMA  =   0.20


--------------------------------------------------------------------------------------------------------


  energy-cutoff  :      300.00
  volume of cell :     2520.00
      direct lattice vectors                 reciprocal lattice vectors
    15.000000000  0.000000000  0.000000000     0.066666667 -0.000000000  0.000000000
     0.000000000 15.000000000  0.000000000     0.000000000  0.066666667  0.000000000
     0.000000000  0.000000000 11.200000000    -0.000000000 -0.000000000  0.089285714

  length of vectors
    15.000000000 15.000000000 11.200000000     0.066666667  0.066666667  0.089285714


 
 k-points in units of 2pi/SCALE and weight: Automatic kpoint scheme                 
   0.00000000  0.00000000  0.00000000       1.000
 
 k-points in reciprocal lattice and weights: Automatic kpoint scheme                 
   0.00000000  0.00000000  0.00000000       1.000
 
 position of ions in fractional coordinates (direct lattice) 
   0.00000000  0.00000000  0.00000000
   0.00000000  0.00000000  0.12500000
   0.00000000  0.00000000  0.25000000
   0.00000000  0.00000000  0.37500000
   0.00000000  0.00000000  0.50000000
   0.00000000  0.00000000  0.62500000
   0.00000000  0.00000000  0.75000000
   0.00000000  0.00000000  0.87500000
 
 position of ions in cartesian coordinates  (Angst):
   0.00000000  0.00000000  0.00000000
   0.00000000  0.00000000  1.40000000
   0.00000000  0.00000000  2.80000000
   0.00000000  0.00000000  4.20000000
   0.00000000  0.00000000  5.60000000
   0.00000000  0.00000000  7.00000000
   0.00000000  0.00000000  8.40000000
   0.00000000  0.00000000  9.80000000
 


--------------------------------------------------------------------------------------------------------


 k-point  1 :   0.0000 0.0000 0.0000  plane waves:   29619

 maximum and minimum number of plane-waves per node :     29619    29619

 maximum number of plane-waves:     29619
 maximum index in each direction: 
   IXMAX=   21   IYMAX=   21   IZMAX=   15
   IXMIN=  -21   IYMIN=  -21   IZMIN=  -15


 serial   3D FFT for wavefunctions
 parallel 3D FFT for charge:
    minimum data exchange during FFTs selected (reduces bandwidth)


 total amount of memory used by VASP MPI-rank0    96743. kBytes
=======================================================================

   base      :      30000. kBytes
   nonl-proj :       4976. kBytes
   fftplans  :      14271. kBytes
   grid      :      44630. kBytes
   one-center:         19. kBytes
   wavefun   :       2847. kBytes
 
     INWAV:  cpu time    0.0000: real time    0.0000
 Broyden mixing: mesh for mixing (old mesh)
   NGX = 43   NGY = 43   NGZ = 31
  (NGX  =128   NGY  =128   NGZ  = 96)
  gives a total of  57319 points

 initial charge density was supplied:
 charge density of overlapping atoms calculated
 number of electron       8.0000000 magnetization       0.0000000
 keeping initial charge density in first step


--------------------------------------------------------------------------------------------------------


 Maximum index for augmentation-charges           79 (set IRDMAX)


--------------------------------------------------------------------------------------------------------


 First call to EWALD:  gamma=   0.130
 Maximum number of real-space cells 3x 3x 3
 Maximum number of reciprocal cells 3x 3x 2

    FEWALD:  cpu time    0.0017: real time    0.0017


--------------------------------------- Iteration      1(   1)  ---------------------------------------


    POTLOK:  cpu time    0.5530: real time    0.5528
    SETDIJ:  cpu time    0.0101: real time    0.0101
     EDDAV:  cpu time    0.4123: real time    0.4121
       DOS:  cpu time    0.0013: real time    0.0013
    --------------------------------------------
      LOOP:  cpu time    0.9766: real time    0.9764

 eigenvalue-minimisations  :    56
 total energy-change (2. order) : 0.7761725E+01  (-0.1104398E+03)
 number of electron       8.0000000 magnetization       0.0000000
 augmentation part        8.0000000 magnetization       0.0000000

 Free energy of the ion-electron system (eV)
  ---------------------------------------------------
  alpha Z        PSCENC =         0.06187092
  Ewald energy   TEWEN  =        77.76819068
  -Hartree energ DENC   =      -133.96818443
  -exchange      EXHF   =         0.00000000
  -V(xc)+E(xc)   XCENC  =        16.98405174
  PAW double counting   =        17.07221949      -17.14324176
  entropy T*S    EENTRO =        -0.10244003
  eigenvalues    EBANDS =       -52.47694513
  atomic energy  EATOM  =        99.56620307
  Solvation  Ediel_sol  =         0.00000000
  ---------------------------------------------------
  free energy    TOTEN  =         7.76172454 eV

  energy without entropy =        7.86416457  energy(sigma->0) =        7.81294456


--------------------------------------------------------------------------------------------------------




--------------------------------------- Iteration      1(   2)  ---------------------------------------


     EDDAV:  cpu time    0.5224: real time    0.5222
       DOS:  cpu time    0.0003: real time    0.0003
    --------------------------------------------
      LOOP:  cpu time    0.5227: real time    0.5225

 eigenvalue-minimisations  :    76
 total energy-change (2. order) :-0.2383833E+02  (-0.2329703E+02)
 number of electron       8.0000000 magnetization       0.0000000
 augmentation part        8.0000000 magnetization       0.0000000

 Free energy of the ion-electron system (eV)
  ---------------------------------------------------
  alpha Z        PSCENC =         0.06187092
  Ewald energy   TEWEN  =        77.76819068
  -Hartree energ DENC   =      -133.96818443
  -exchange      EXHF   =         0.00000000
  -V(xc)+E(xc)   XCENC  =        16.98405174
  PAW double counting   =        17.07221949      -17.14324176
  entropy T*S    EENTRO =        -0.00000013
  eigenvalues    EBANDS =       -76.41771758
  atomic energy  EATOM  =        99.56620307
  Solvation  Ediel_sol  =         0.00000000
  ---------------------------------------------------
  free energy    TOTEN  =       -16.07660801 eV

  energy without entropy =      -16.07660787  energy(sigma->0) =      -16.07660794


--------------------------------------------------------------------------------------------------------




--------------------------------------- Iteration      1(   3)  ---------------------------------------


     EDDAV:  cpu time    0.4317: real time    0.4315
       DOS:  cpu time    0.0003: real time    0.0003
    --------------------------------------------
      LOOP:  cpu time    0.4320: real time    0.4318

 eigenvalue-minimisations  :    60
 total energy-change (2. order) :-0.2006988E+01  (-0.1821408E+01)
 number of electron       8.0000000 magnetization       0.0000000
 augmentation part        8.0000000 magnetization       0.0000000

 Free energy of the ion-electron system (eV)
  ---------------------------------------------------
  alpha Z        PSCENC =         0.06187092
  Ewald energy   TEWEN  =        77.76819068
  -Hartree energ DENC   =      -133.96818443
  -exchange      EXHF   =         0.00000000
  -V(xc)+E(xc)   XCENC  =        16.98405174
  PAW double counting   =        17.07221949      -17.14324176
  entropy T*S    EENTRO =        -0.22298429
  eigenvalues    EBANDS =       -78.20172132
  atomic energy  EATOM  =        99.56620307
  Solvation  Ediel_sol  =         0.00000000
  ---------------------------------------------------
  free energy    TOTEN  =       -18.08359591 eV

  energy without entropy =      -17.86061161  energy(sigma->0) =      -17.97210376


--------------------------------------------------------------------------------------------------------




--------------------------------------- Iteration      1(   4)  ---------------------------------------


     EDDAV:  cpu time    0.5147: real time    0.5145
       DOS:  cpu time    0.0003: real time    0.0003
    --------------------------------------------
      LOOP:  cpu time    0.5150: real time    0.5148

 eigenvalue-minimisations  :    72
 total energy-change (2. order) :-0.7401466E-01  (-0.7119847E-01)
 number of electron       8.0000000 magnetization       0.0000000
 augmentation part        8.0000000 magnetization       0.0000000

 Free energy of the ion-electron system (eV)
  ---------------------------------------------------
  alpha Z        PSCENC =         0.06187092
  Ewald energy   TEWEN  =        77.76819068
  -Hartree energ DENC   =      -133.96818443
  -exchange      EXHF   =         0.00000000
  -V(xc)+E(xc)   XCENC  =        16.98405174
  PAW double counting   =        17.07221949      -17.14324176
  entropy T*S    EENTRO =        -0.22567548
  eigenvalues    EBANDS =       -78.27304479
  atomic energy  EATOM  =        99.56620307
  Solvation  Ediel_sol  =         0.00000000
  ---------------------------------------------------
  free energy    TOTEN  =       -18.15761056 eV

  energy without entropy =      -17.93193509  energy(sigma->0) =      -18.04477283


--------------------------------------------------------------------------------------------------------




--------------------------------------- Iteration      1(   5)  ---------------------------------------


     EDDAV:  cpu time    0.4998: real time    0.4995
       DOS:  cpu time    0.0003: real time    0.0003
    CHARGE:  cpu time    0.1677: real time    0.1677
    MIXING:  cpu time    0.0105: real time    0.0104
    --------------------------------------------
      LOOP:  cpu time    0.6783: real time    0.6780

 eigenvalue-minimisations  :    72
 total energy-change (2. order) :-0.1004917E-02  (-0.1000713E-02)
 number of electron       8.0000084 magnetization      -0.0000000
 augmentation part        0.1080239 magnetization      -0.0000090

 Broyden mixing:
  rms(total) = 0.18979E+00    rms(broyden)= 0.18727E+00
  rms(prec ) = 0.21607E+00
  weight for this iteration     100.00

 Free energy of the ion-electron system (eV)
  ---------------------------------------------------
  alpha Z        PSCENC =         0.06187092
  Ewald energy   TEWEN  =        77.76819068
  -Hartree energ DENC   =      -133.96818443
  -exchange      EXHF   =         0.00000000
  -V(xc)+E(xc)   XCENC  =        16.98405174
  PAW double counting   =        17.07221949      -17.14324176
  entropy T*S    EENTRO =        -0.22567583
  eigenvalues    EBANDS =       -78.27404935
  atomic energy  EATOM  =        99.56620307
  Solvation  Ediel_sol  =         0.00000000
  ---------------------------------------------------
  free energy    TOTEN  =       -18.15861548 eV

  energy without entropy =      -17.93293965  energy(sigma->0) =      -18.04577756


--------------------------------------------------------------------------------------------------------




--------------------------------------- Iteration      1(   6)  ---------------------------------------


    POTLOK:  cpu time    0.5786: real time    0.5784
    SETDIJ:  cpu time    0.0109: real time    0.0109
     EDDAV:  cpu time    0.3726: real time    0.3724
       DOS:  cpu time    0.0003: real time    0.0003
    CHARGE:  cpu time    0.1658: real time    0.1657
    MIXING:  cpu time    0.0116: real time    0.0116
    --------------------------------------------
      LOOP:  cpu time    1.1398: real time    1.1393

 eigenvalue-minimisations  :    48
 total energy-change (2. order) : 0.3199312E-01  (-0.1683480E-02)
 number of electron       8.0000083 magnetization      -0.0000000
 augmentation part        0.1070954 magnetization      -0.0000018

 Broyden mixing:
  rms(total) = 0.11661E+00    rms(broyden)= 0.11640E+00
  rms(prec ) = 0.13632E+00
  weight for this iteration     100.00

 eigenvalues of (default mixing * dielectric matrix)
  average eigenvalue GAMMA=   2.5913
  2.5913

 Free energy of the ion-electron system (eV)
  ---------------------------------------------------
  alpha Z        PSCENC =         0.06187092
  Ewald energy   TEWEN  =        77.76819068
  -Hartree energ DENC   =      -136.09319019
  -exchange      EXHF   =         0.00000000
  -V(xc)+E(xc)   XCENC  =        17.26851825
  PAW double counting   =        23.44438626      -23.51892545
  entropy T*S    EENTRO =        -0.22567583
  eigenvalues    EBANDS =       -76.39800008
  atomic energy  EATOM  =        99.56620307
  Solvation  Ediel_sol  =         0.00000000
  ---------------------------------------------------
  free energy    TOTEN  =       -18.12662237 eV

  energy without entropy =      -17.90094653  energy(sigma->0) =      -18.01378445


--------------------------------------------------------------------------------------------------------




--------------------------------------- Iteration      1(   7)  ---------------------------------------


    POTLOK:  cpu time    0.5776: real time    0.5773
    SETDIJ:  cpu time    0.0111: real time    0.0111
     EDDAV:  cpu time    0.3658: real time    0.3657
       DOS:  cpu time    0.0003: real time    0.0003
    CHARGE:  cpu time    0.1618: real time    0.1617
    MIXING:  cpu time    0.0121: real time    0.0121
    --------------------------------------------
      LOOP:  cpu time    1.1287: real time    1.1282

 eigenvalue-minimisations  :    48
 total energy-change (2. order) : 0.3768959E-01  (-0.6412727E-02)
 number of electron       8.0000081 magnetization       0.0000000
 augmentation part        0.1052432 magnetization       0.0000038

 Broyden mixing:
  rms(total) = 0.15699E-01    rms(broyden)= 0.15418E-01
  rms(prec ) = 0.22075E-01
  weight for this iteration     100.00

 eigenvalues of (default mixing * dielectric matrix)
  average eigenvalue GAMMA=   2.8789
  2.8789  2.8789

 Free energy of the ion-electron system (eV)
  ---------------------------------------------------
  alpha Z        PSCENC =         0.06187092
  Ewald energy   TEWEN  =        77.76819068
  -Hartree energ DENC   =      -140.05344605
  -exchange      EXHF   =         0.00000000
  -V(xc)+E(xc)   XCENC  =        17.79932039
  PAW double counting   =        35.85239696      -35.93257988
  entropy T*S    EENTRO =        -0.22567583
  eigenvalues    EBANDS =       -72.92521303
  atomic energy  EATOM  =        99.56620307
  Solvation  Ediel_sol  =         0.00000000
  ---------------------------------------------------
  free energy    TOTEN  =       -18.08893277 eV

  energy without entropy =      -17.86325694  energy(sigma->0) =      -17.97609486


--------------------------------------------------------------------------------------------------------




--------------------------------------- Iteration      1(   8)  ---------------------------------------


    POTLOK:  cpu time    0.5715: real time    0.5712
    SETDIJ:  cpu time    0.0107: real time    0.0107
     EDDAV:  cpu time    0.3619: real time    0.3616
       DOS:  cpu time    0.0003: real time    0.0003
    CHARGE:  cpu time    0.1628: real time    0.1628
    MIXING:  cpu time    0.0128: real time    0.0128
    --------------------------------------------
      LOOP:  cpu time    1.1200: real time    1.1194

 eigenvalue-minimisations  :    48
 total energy-change (2. order) :-0.2070380E-02  (-0.2415426E-03)
 number of electron       8.0000081 magnetization      -0.0000000
 augmentation part        0.1049495 magnetization      -0.0000140

 Broyden mixing:
  rms(total) = 0.42540E-02    rms(broyden)= 0.41754E-02
  rms(prec ) = 0.80876E-02
  weight for this iteration     100.00

 eigenvalues of (default mixing * dielectric matrix)
  average eigenvalue GAMMA=   2.2323
  3.1330  2.6903  0.8735

 Free energy of the ion-electron system (eV)
  ---------------------------------------------------
  alpha Z        PSCENC =         0.06187092
  Ewald energy   TEWEN  =        77.76819068
  -Hartree energ DENC   =      -140.74263765
  -exchange      EXHF   =         0.00000000
  -V(xc)+E(xc)   XCENC  =        17.84763479
  PAW double counting   =        34.12614716      -34.20291661
  entropy T*S    EENTRO =        -0.22567583
  eigenvalues    EBANDS =       -72.28981969
  atomic energy  EATOM  =        99.56620307
  Solvation  Ediel_sol  =         0.00000000
  ---------------------------------------------------
  free energy    TOTEN  =       -18.09100315 eV

  energy without entropy =      -17.86532732  energy(sigma->0) =      -17.97816524


--------------------------------------------------------------------------------------------------------




--------------------------------------- Iteration      1(   9)  ---------------------------------------


    POTLOK:  cpu time    0.5732: real time    0.5729
    SETDIJ:  cpu time    0.0108: real time    0.0108
     EDDAV:  cpu time    0.4072: real time    0.4070
       DOS:  cpu time    0.0003: real time    0.0003
    CHARGE:  cpu time    0.1615: real time    0.1615
    MIXING:  cpu time    0.0136: real time    0.0136
    --------------------------------------------
      LOOP:  cpu time    1.1666: real time    1.1660

 eigenvalue-minimisations  :    56
 total energy-change (2. order) :-0.3964357E-03  (-0.1511497E-04)
 number of electron       8.0000081 magnetization       0.0000000
 augmentation part        0.1048790 magnetization       0.0000060

 Broyden mixing:
  rms(total) = 0.26565E-02    rms(broyden)= 0.26472E-02
  rms(prec ) = 0.60641E-02
  weight for this iteration     100.00

 eigenvalues of (default mixing * dielectric matrix)
  average eigenvalue GAMMA=   1.9858
  3.0768  2.5935  1.5667  0.7064

 Free energy of the ion-electron system (eV)
  ---------------------------------------------------
  alpha Z        PSCENC =         0.06187092
  Ewald energy   TEWEN  =        77.76819068
  -Hartree energ DENC   =      -140.95707249
  -exchange      EXHF   =         0.00000000
  -V(xc)+E(xc)   XCENC  =        17.86694911
  PAW double counting   =        34.48090467      -34.55784105
  entropy T*S    EENTRO =        -0.22567583
  eigenvalues    EBANDS =       -72.09492867
  atomic energy  EATOM  =        99.56620307
  Solvation  Ediel_sol  =         0.00000000
  ---------------------------------------------------
  free energy    TOTEN  =       -18.09139959 eV

  energy without entropy =      -17.86572376  energy(sigma->0) =      -17.97856167


--------------------------------------------------------------------------------------------------------




--------------------------------------- Iteration      1(  10)  ---------------------------------------


    POTLOK:  cpu time    0.5884: real time    0.5881
    SETDIJ:  cpu time    0.0112: real time    0.0112
     EDDAV:  cpu time    0.3668: real time    0.3667
       DOS:  cpu time    0.0003: real time    0.0003
    CHARGE:  cpu time    0.1619: real time    0.1619
    MIXING:  cpu time    0.0148: real time    0.0148
    --------------------------------------------
      LOOP:  cpu time    1.1434: real time    1.1430

 eigenvalue-minimisations  :    48
 total energy-change (2. order) :-0.1257417E-02  (-0.1549627E-04)
 number of electron       8.0000081 magnetization       0.0000000
 augmentation part        0.1048561 magnetization      -0.0000093

 Broyden mixing:
  rms(total) = 0.17450E-02    rms(broyden)= 0.17440E-02
  rms(prec ) = 0.38198E-02
  weight for this iteration     100.00

 eigenvalues of (default mixing * dielectric matrix)
  average eigenvalue GAMMA=   2.2756
  4.2100  2.9493  2.5356  0.9927  0.6906

 Free energy of the ion-electron system (eV)
  ---------------------------------------------------
  alpha Z        PSCENC =         0.06187092
  Ewald energy   TEWEN  =        77.76819068
  -Hartree energ DENC   =      -141.16520763
  -exchange      EXHF   =         0.00000000
  -V(xc)+E(xc)   XCENC  =        17.87669431
  PAW double counting   =        34.71198291      -34.78924532
  entropy T*S    EENTRO =        -0.22567583
  eigenvalues    EBANDS =       -71.89747011
  atomic energy  EATOM  =        99.56620307
  Solvation  Ediel_sol  =         0.00000000
  ---------------------------------------------------
  free energy    TOTEN  =       -18.09265701 eV

  energy without entropy =      -17.86698117  energy(sigma->0) =      -17.97981909


--------------------------------------------------------------------------------------------------------




--------------------------------------- Iteration      1(  11)  ---------------------------------------


    POTLOK:  cpu time    0.5717: real time    0.5715
    SETDIJ:  cpu time    0.0109: real time    0.0109
     EDDAV:  cpu time    0.3628: real time    0.3626
       DOS:  cpu time    0.0003: real time    0.0003
    CHARGE:  cpu time    0.1619: real time    0.1618
    MIXING:  cpu time    0.0154: real time    0.0153
    --------------------------------------------
      LOOP:  cpu time    1.1228: real time    1.1348

 eigenvalue-minimisations  :    48
 total energy-change (2. order) : 0.7177966E-04  (-0.2319588E-04)
 number of electron       8.0000081 magnetization      -0.0000000
 augmentation part        0.1048424 magnetization      -0.0000022

 Broyden mixing:
  rms(total) = 0.89655E-03    rms(broyden)= 0.89633E-03
  rms(prec ) = 0.20598E-02
  weight for this iteration     100.00

 eigenvalues of (default mixing * dielectric matrix)
  average eigenvalue GAMMA=   2.1578
  4.7661  2.9720  2.5328  1.1396  0.8621  0.6743

 Free energy of the ion-electron system (eV)
  ---------------------------------------------------
  alpha Z        PSCENC =         0.06187092
  Ewald energy   TEWEN  =        77.76819068
  -Hartree energ DENC   =      -141.34067434
  -exchange      EXHF   =         0.00000000
  -V(xc)+E(xc)   XCENC  =        17.88324039
  PAW double counting   =        34.77401361      -34.85143755
  entropy T*S    EENTRO =        -0.22567583
  eigenvalues    EBANDS =       -71.72831618
  atomic energy  EATOM  =        99.56620307
  Solvation  Ediel_sol  =         0.00000000
  ---------------------------------------------------
  free energy    TOTEN  =       -18.09258523 eV

  energy without entropy =      -17.86690939  energy(sigma->0) =      -17.97974731


--------------------------------------------------------------------------------------------------------




--------------------------------------- Iteration      1(  12)  ---------------------------------------


    POTLOK:  cpu time    0.5665: real time    0.5787
    SETDIJ:  cpu time    0.0129: real time    0.0129
     EDDAV:  cpu time    0.3662: real time    0.3661
       DOS:  cpu time    0.0003: real time    0.0003
    CHARGE:  cpu time    0.1654: real time    0.1654
    MIXING:  cpu time    0.0163: real time    0.0163
    --------------------------------------------
      LOOP:  cpu time    1.1276: real time    1.1274

 eigenvalue-minimisations  :    48
 total energy-change (2. order) :-0.1596817E-02  (-0.1601259E-04)
 number of electron       8.0000081 magnetization      -0.0000000
 augmentation part        0.1048323 magnetization       0.0000025

 Broyden mixing:
  rms(total) = 0.59697E-03    rms(broyden)= 0.59684E-03
  rms(prec ) = 0.11834E-02
  weight for this iteration     100.00

 eigenvalues of (default mixing * dielectric matrix)
  average eigenvalue GAMMA=   2.4337
  5.8766  3.4245  2.7775  2.5241  1.0212  0.7604  0.6513

 Free energy of the ion-electron system (eV)
  ---------------------------------------------------
  alpha Z        PSCENC =         0.06187092
  Ewald energy   TEWEN  =        77.76819068
  -Hartree energ DENC   =      -141.40232125
  -exchange      EXHF   =         0.00000000
  -V(xc)+E(xc)   XCENC  =        17.88423463
  PAW double counting   =        34.68557194      -34.76286896
  entropy T*S    EENTRO =        -0.22567583
  eigenvalues    EBANDS =       -71.66938725
  atomic energy  EATOM  =        99.56620307
  Solvation  Ediel_sol  =         0.00000000
  ---------------------------------------------------
  free energy    TOTEN  =       -18.09418204 eV

  energy without entropy =      -17.86850621  energy(sigma->0) =      -17.98134413


--------------------------------------------------------------------------------------------------------




--------------------------------------- Iteration      1(  13)  ---------------------------------------


    POTLOK:  cpu time    0.5673: real time    0.5672
    SETDIJ:  cpu time    0.0108: real time    0.0108
     EDDAV:  cpu time    0.3638: real time    0.3637
       DOS:  cpu time    0.0003: real time    0.0003
    CHARGE:  cpu time    0.1625: real time    0.1624
    MIXING:  cpu time    0.0176: real time    0.0176
    --------------------------------------------
      LOOP:  cpu time    1.1223: real time    1.1220

 eigenvalue-minimisations  :    48
 total energy-change (2. order) :-0.7119324E-03  (-0.7490626E-05)
 number of electron       8.0000081 magnetization      -0.0000000
 augmentation part        0.1048262 magnetization      -0.0000004

 Broyden mixing:
  rms(total) = 0.38730E-03    rms(broyden)= 0.38722E-03
  rms(prec ) = 0.65646E-03
  weight for this iteration     100.00

 eigenvalues of (default mixing * dielectric matrix)
  average eigenvalue GAMMA=   2.3987
  6.5658  3.8753  2.8561  2.5272  1.1545  0.8424  0.7269  0.6414

 Free energy of the ion-electron system (eV)
  ---------------------------------------------------
  alpha Z        PSCENC =         0.06187092
  Ewald energy   TEWEN  =        77.76819068
  -Hartree energ DENC   =      -141.42378525
  -exchange      EXHF   =         0.00000000
  -V(xc)+E(xc)   XCENC  =        17.88340229
  PAW double counting   =        34.63004883      -34.70727070
  entropy T*S    EENTRO =        -0.22567583
  eigenvalues    EBANDS =       -71.64787799
  atomic energy  EATOM  =        99.56620307
  Solvation  Ediel_sol  =         0.00000000
  ---------------------------------------------------
  free energy    TOTEN  =       -18.09489398 eV

  energy without entropy =      -17.86921814  energy(sigma->0) =      -17.98205606


--------------------------------------------------------------------------------------------------------




--------------------------------------- Iteration      1(  14)  ---------------------------------------


    POTLOK:  cpu time    0.5682: real time    0.5679
    SETDIJ:  cpu time    0.0107: real time    0.0107
     EDDAV:  cpu time    0.3667: real time    0.3665
       DOS:  cpu time    0.0003: real time    0.0003
    CHARGE:  cpu time    0.1714: real time    0.1714
    MIXING:  cpu time    0.0191: real time    0.0191
    --------------------------------------------
      LOOP:  cpu time    1.1363: real time    1.1359

 eigenvalue-minimisations  :    48
 total energy-change (2. order) :-0.2888762E-03  (-0.1091309E-05)
 number of electron       8.0000081 magnetization       0.0000000
 augmentation part        0.1048265 magnetization       0.0000009

 Broyden mixing:
  rms(total) = 0.22224E-03    rms(broyden)= 0.22224E-03
  rms(prec ) = 0.36728E-03
  weight for this iteration     100.00

 eigenvalues of (default mixing * dielectric matrix)
  average eigenvalue GAMMA=   2.5793
  7.4279  4.6208  2.9239  2.6205  2.4675  0.9765  0.8539  0.6823  0.6402

 Free energy of the ion-electron system (eV)
  ---------------------------------------------------
  alpha Z        PSCENC =         0.06187092
  Ewald energy   TEWEN  =        77.76819068
  -Hartree energ DENC   =      -141.41609476
  -exchange      EXHF   =         0.00000000
  -V(xc)+E(xc)   XCENC  =        17.88170122
  PAW double counting   =        34.64435563      -34.72159183
  entropy T*S    EENTRO =        -0.22567583
  eigenvalues    EBANDS =       -71.65414195
  atomic energy  EATOM  =        99.56620307
  Solvation  Ediel_sol  =         0.00000000
  ---------------------------------------------------
  free energy    TOTEN  =       -18.09518285 eV

  energy without entropy =      -17.86950702  energy(sigma->0) =      -17.98234494


--------------------------------------------------------------------------------------------------------




--------------------------------------- Iteration      1(  15)  ---------------------------------------


    POTLOK:  cpu time    0.5796: real time    0.5795
    SETDIJ:  cpu time    0.0111: real time    0.0111
     EDDAV:  cpu time    0.3747: real time    0.3746
       DOS:  cpu time    0.0003: real time    0.0003
    CHARGE:  cpu time    0.1719: real time    0.1718
    MIXING:  cpu time    0.0211: real time    0.0211
    --------------------------------------------
      LOOP:  cpu time    1.1587: real time    1.1584

 eigenvalue-minimisations  :    48
 total energy-change (2. order) :-0.1896759E-03  (-0.9004720E-06)
 number of electron       8.0000081 magnetization       0.0000000
 augmentation part        0.1048277 magnetization       0.0000005

 Broyden mixing:
  rms(total) = 0.12475E-03    rms(broyden)= 0.12474E-03
  rms(prec ) = 0.17205E-03
  weight for this iteration     100.00

 eigenvalues of (default mixing * dielectric matrix)
  average eigenvalue GAMMA=   2.5994
  8.3725  5.0952  3.1433  2.8563  2.5085  1.0594  0.9031  0.7489  0.6732  0.6341

 Free energy of the ion-electron system (eV)
  ---------------------------------------------------
  alpha Z        PSCENC =         0.06187092
  Ewald energy   TEWEN  =        77.76819068
  -Hartree energ DENC   =      -141.41692986
  -exchange      EXHF   =         0.00000000
  -V(xc)+E(xc)   XCENC  =        17.88084387
  PAW double counting   =        34.67369253      -34.75095567
  entropy T*S    EENTRO =        -0.22567583
  eigenvalues    EBANDS =       -71.65261224
  atomic energy  EATOM  =        99.56620307
  Solvation  Ediel_sol  =         0.00000000
  ---------------------------------------------------
  free energy    TOTEN  =       -18.09537253 eV

  energy without entropy =      -17.86969669  energy(sigma->0) =      -17.98253461


--------------------------------------------------------------------------------------------------------




--------------------------------------- Iteration      1(  16)  ---------------------------------------


    POTLOK:  cpu time    0.5865: real time    0.5863
    SETDIJ:  cpu time    0.0113: real time    0.0113
     EDDAV:  cpu time    0.3752: real time    0.3751
       DOS:  cpu time    0.0003: real time    0.0003
    CHARGE:  cpu time    0.1645: real time    0.1645
    MIXING:  cpu time    0.0225: real time    0.0225
    --------------------------------------------
      LOOP:  cpu time    1.1603: real time    1.1600

 eigenvalue-minimisations  :    48
 total energy-change (2. order) :-0.1446809E-04  (-0.1328284E-07)
 number of electron       8.0000081 magnetization      -0.0000000
 augmentation part        0.1048270 magnetization       0.0000000

 Broyden mixing:
  rms(total) = 0.84494E-04    rms(broyden)= 0.84492E-04
  rms(prec ) = 0.12155E-03
  weight for this iteration     100.00

 eigenvalues of (default mixing * dielectric matrix)
  average eigenvalue GAMMA=   2.6412
  8.8352  5.2361  3.4298  2.9359  2.4861  2.2029  0.9514  0.9514  0.7145  0.6787
  0.6306

 Free energy of the ion-electron system (eV)
  ---------------------------------------------------
  alpha Z        PSCENC =         0.06187092
  Ewald energy   TEWEN  =        77.76819068
  -Hartree energ DENC   =      -141.41991290
  -exchange      EXHF   =         0.00000000
  -V(xc)+E(xc)   XCENC  =        17.88106414
  PAW double counting   =        34.67418627      -34.75145120
  entropy T*S    EENTRO =        -0.22567583
  eigenvalues    EBANDS =       -71.64986214
  atomic energy  EATOM  =        99.56620307
  Solvation  Ediel_sol  =         0.00000000
  ---------------------------------------------------
  free energy    TOTEN  =       -18.09538700 eV

  energy without entropy =      -17.86971116  energy(sigma->0) =      -17.98254908


--------------------------------------------------------------------------------------------------------




--------------------------------------- Iteration      1(  17)  ---------------------------------------


    POTLOK:  cpu time    0.5738: real time    0.5737
    SETDIJ:  cpu time    0.0111: real time    0.0111
     EDDAV:  cpu time    0.3693: real time    0.3692
       DOS:  cpu time    0.0003: real time    0.0003
    CHARGE:  cpu time    0.1642: real time    0.1642
    MIXING:  cpu time    0.0224: real time    0.0224
    --------------------------------------------
      LOOP:  cpu time    1.1412: real time    1.1409

 eigenvalue-minimisations  :    48
 total energy-change (2. order) :-0.3601531E-04  (-0.6554585E-07)
 number of electron       8.0000081 magnetization       0.0000000
 augmentation part        0.1048263 magnetization      -0.0000000

 Broyden mixing:
  rms(total) = 0.23261E-04    rms(broyden)= 0.23253E-04
  rms(prec ) = 0.31826E-04
  weight for this iteration     100.00

 eigenvalues of (default mixing * dielectric matrix)
  average eigenvalue GAMMA=   2.6435
  9.3326  5.5086  4.0058  2.8642  2.7611  2.5107  1.0121  0.9608  0.7638  0.7056
  0.6298  0.6664

 Free energy of the ion-electron system (eV)
  ---------------------------------------------------
  alpha Z        PSCENC =         0.06187092
  Ewald energy   TEWEN  =        77.76819068
  -Hartree energ DENC   =      -141.42489171
  -exchange      EXHF   =         0.00000000
  -V(xc)+E(xc)   XCENC  =        17.88148359
  PAW double counting   =        34.66618103      -34.74344105
  entropy T*S    EENTRO =        -0.22567583
  eigenvalues    EBANDS =       -71.64534370
  atomic energy  EATOM  =        99.56620307
  Solvation  Ediel_sol  =         0.00000000
  ---------------------------------------------------
  free energy    TOTEN  =       -18.09542301 eV

  energy without entropy =      -17.86974718  energy(sigma->0) =      -17.98258509


--------------------------------------------------------------------------------------------------------




--------------------------------------- Iteration      1(  18)  ---------------------------------------


    POTLOK:  cpu time    0.5746: real time    0.5744
    SETDIJ:  cpu time    0.0113: real time    0.0113
     EDDAV:  cpu time    0.3721: real time    0.3720
       DOS:  cpu time    0.0003: real time    0.0003
    CHARGE:  cpu time    0.1637: real time    0.1637
    MIXING:  cpu time    0.0237: real time    0.0237
    --------------------------------------------
      LOOP:  cpu time    1.1456: real time    1.1454

 eigenvalue-minimisations  :    48
 total energy-change (2. order) :-0.1076567E-05  (-0.1843880E-08)
 number of electron       8.0000081 magnetization      -0.0000000
 augmentation part        0.1048262 magnetization      -0.0000000

 Broyden mixing:
  rms(total) = 0.13590E-04    rms(broyden)= 0.13588E-04
  rms(prec ) = 0.22796E-04
  weight for this iteration     100.00

 eigenvalues of (default mixing * dielectric matrix)
  average eigenvalue GAMMA=   2.5462
  9.3912  5.5490  4.0813  2.8336  2.8336  2.4901  1.2616  0.9679  0.9679  0.7285
  0.7088  0.6299  0.6577

 Free energy of the ion-electron system (eV)
  ---------------------------------------------------
  alpha Z        PSCENC =         0.06187092
  Ewald energy   TEWEN  =        77.76819068
  -Hartree energ DENC   =      -141.42491854
  -exchange      EXHF   =         0.00000000
  -V(xc)+E(xc)   XCENC  =        17.88148675
  PAW double counting   =        34.66640338      -34.74366272
  entropy T*S    EENTRO =        -0.22567583
  eigenvalues    EBANDS =       -71.64532179
  atomic energy  EATOM  =        99.56620307
  Solvation  Ediel_sol  =         0.00000000
  ---------------------------------------------------
  free energy    TOTEN  =       -18.09542409 eV

  energy without entropy =      -17.86974825  energy(sigma->0) =      -17.98258617


--------------------------------------------------------------------------------------------------------




--------------------------------------- Iteration      1(  19)  ---------------------------------------


    POTLOK:  cpu time    0.5771: real time    0.5770
    SETDIJ:  cpu time    0.0109: real time    0.0109
     EDDAV:  cpu time    0.3724: real time    0.3723
       DOS:  cpu time    0.0003: real time    0.0003
    CHARGE:  cpu time    0.1681: real time    0.1681
    MIXING:  cpu time    0.0252: real time    0.0252
    --------------------------------------------
      LOOP:  cpu time    1.1541: real time    1.1538

 eigenvalue-minimisations  :    48
 total energy-change (2. order) :-0.2726023E-05  (-0.1539177E-08)
 number of electron       8.0000081 magnetization      -0.0000000
 augmentation part        0.1048260 magnetization      -0.0000000

 Broyden mixing:
  rms(total) = 0.81097E-05    rms(broyden)= 0.81082E-05
  rms(prec ) = 0.13208E-04
  weight for this iteration     100.00

 eigenvalues of (default mixing * dielectric matrix)
  average eigenvalue GAMMA=   2.5697
  9.4406  5.6211  4.2758  3.0119  3.0119  2.5322  2.5322  1.0017  1.0017  0.8512
  0.7278  0.6859  0.6290  0.6531

 Free energy of the ion-electron system (eV)
  ---------------------------------------------------
  alpha Z        PSCENC =         0.06187092
  Ewald energy   TEWEN  =        77.76819068
  -Hartree energ DENC   =      -141.42494291
  -exchange      EXHF   =         0.00000000
  -V(xc)+E(xc)   XCENC  =        17.88147392
  PAW double counting   =        34.66762744      -34.74488665
  entropy T*S    EENTRO =        -0.22567583
  eigenvalues    EBANDS =       -71.64528744
  atomic energy  EATOM  =        99.56620307
  Solvation  Ediel_sol  =         0.00000000
  ---------------------------------------------------
  free energy    TOTEN  =       -18.09542681 eV

  energy without entropy =      -17.86975098  energy(sigma->0) =      -17.98258890


--------------------------------------------------------------------------------------------------------




--------------------------------------- Iteration      1(  20)  ---------------------------------------


    POTLOK:  cpu time    0.5828: real time    0.5827
    SETDIJ:  cpu time    0.0110: real time    0.0110
     EDDAV:  cpu time    0.3689: real time    0.3688
       DOS:  cpu time    0.0003: real time    0.0003
    CHARGE:  cpu time    0.1648: real time    0.1648
    MIXING:  cpu time    0.0272: real time    0.0272
    --------------------------------------------
      LOOP:  cpu time    1.1550: real time    1.1547

 eigenvalue-minimisations  :    48
 total energy-change (2. order) :-0.1471338E-05  (-0.1008988E-08)
 number of electron       8.0000081 magnetization      -0.0000000
 augmentation part        0.1048261 magnetization      -0.0000000

 Broyden mixing:
  rms(total) = 0.35954E-05    rms(broyden)= 0.35952E-05
  rms(prec ) = 0.67490E-05
  weight for this iteration     100.00

 eigenvalues of (default mixing * dielectric matrix)
  average eigenvalue GAMMA=   2.5136
  9.4683  5.7221  4.4436  3.6432  2.7693  2.7693  2.4941  1.0477  0.9734  0.9734
  0.7385  0.7171  0.6700  0.6285  0.6459

 Free energy of the ion-electron system (eV)
  ---------------------------------------------------
  alpha Z        PSCENC =         0.06187092
  Ewald energy   TEWEN  =        77.76819068
  -Hartree energ DENC   =      -141.42471498
  -exchange      EXHF   =         0.00000000
  -V(xc)+E(xc)   XCENC  =        17.88143675
  PAW double counting   =        34.66743241      -34.74469182
  entropy T*S    EENTRO =        -0.22567583
  eigenvalues    EBANDS =       -71.64547947
  atomic energy  EATOM  =        99.56620307
  Solvation  Ediel_sol  =         0.00000000
  ---------------------------------------------------
  free energy    TOTEN  =       -18.09542829 eV

  energy without entropy =      -17.86975245  energy(sigma->0) =      -17.98259037


--------------------------------------------------------------------------------------------------------




--------------------------------------- Iteration      1(  21)  ---------------------------------------


    POTLOK:  cpu time    0.5816: real time    0.5815
    SETDIJ:  cpu time    0.0110: real time    0.0110
     EDDAV:  cpu time    0.3700: real time    0.3699
       DOS:  cpu time    0.0003: real time    0.0003
    --------------------------------------------
      LOOP:  cpu time    0.9629: real time    0.9626

 eigenvalue-minimisations  :    48
 total energy-change (2. order) :-0.3672806E-06  (-0.9394974E-10)
 number of electron       8.0000081 magnetization      -0.0000000
 augmentation part        0.1048261 magnetization      -0.0000000

 Free energy of the ion-electron system (eV)
  ---------------------------------------------------
  alpha Z        PSCENC =         0.06187092
  Ewald energy   TEWEN  =        77.76819068
  -Hartree energ DENC   =      -141.42460791
  -exchange      EXHF   =         0.00000000
  -V(xc)+E(xc)   XCENC  =        17.88142133
  PAW double counting   =        34.66716086      -34.74442030
  entropy T*S    EENTRO =        -0.22567583
  eigenvalues    EBANDS =       -71.64557147
  atomic energy  EATOM  =        99.56620307
  Solvation  Ediel_sol  =         0.00000000
  ---------------------------------------------------
  free energy    TOTEN  =       -18.09542865 eV

  energy without entropy =      -17.86975282  energy(sigma->0) =      -17.98259074


--------------------------------------------------------------------------------------------------------




 average (electrostatic) potential at core
  the test charge radii are     0.5201
  (the norm of the test charge is              1.0001)
       1 -41.5714       2 -41.5714       3 -41.5714       4 -41.5714       5 -41.5714
       6 -41.5714       7 -41.5714       8 -41.5714
 
 
 
 E-fermi :  -6.0962     XC(G=0):  -0.4902     alpha+bet : -0.0877


 spin component 1

 k-point     1 :       0.0000    0.0000    0.0000
  band No.  band energies     occupation 
      1     -10.6773      1.00000
      2      -9.5247      1.00000
      3      -9.5247      1.00000
      4      -6.0962      0.50000
      5      -6.0962      0.50000
      6      -0.6206      0.00000
      7      -0.6206      0.00000
      8      -0.1660      0.00000
      9      -0.1660      0.00000
     10      -0.1190      0.00000
     11       0.5972      0.00000
     12       0.6007      0.00000

 spin component 2

 k-point     1 :       0.0000    0.0000    0.0000
  band No.  band energies     occupation 
      1     -10.6773      1.00000
      2      -9.5247      1.00000
      3      -9.5247      1.00000
      4      -6.0962      0.50000
      5      -6.0962      0.50000
      6      -0.6206      0.00000
      7      -0.6206      0.00000
      8      -0.1659      0.00000
      9      -0.1659      0.00000
     10      -0.1187      0.00000
     11       0.5976      0.00000
     12       0.6008      0.00000


--------------------------------------------------------------------------------------------------------


 soft charge-density along one line, spin component           1
         0         1         2         3         4         5         6         7         8         9
 total charge-density along one line
 
 soft charge-density along one line, spin component           2
         0         1         2         3         4         5         6         7         8         9
 total charge-density along one line
 
 pseudopotential strength for first ion, spin component:           1
 -2.354  -4.056   0.000  -0.000   0.000
 -4.056  -6.904   0.000  -0.000   0.000
  0.000   0.000  -0.347  -0.000  -0.000
 -0.000  -0.000  -0.000  -0.347   0.000
  0.000   0.000  -0.000   0.000  -0.347
 pseudopotential strength for first ion, spin component:           2
 -2.354  -4.056   0.000  -0.000   0.000
 -4.056  -6.904   0.000  -0.000   0.000
  0.000   0.000  -0.347  -0.000  -0.000
 -0.000  -0.000  -0.000  -0.347   0.000
  0.000   0.000  -0.000   0.000  -0.347
 total augmentation occupancy for first ion, spin component:           1
  2.234  -0.407   0.000   0.000   0.000
 -0.407   0.077  -0.000  -0.000  -0.000
  0.000  -0.000   0.000  -0.000   0.000
  0.000  -0.000  -0.000   0.009   0.000
 -0.000  -0.000   0.000   0.000   0.000
 total augmentation occupancy for first ion, spin component:           2
  0.000  -0.000   0.000  -0.000  -0.000
 -0.000   0.000  -0.000   0.000   0.000
 -0.000  -0.000   0.000   0.000   0.000
 -0.000   0.000   0.000   0.000   0.000
  0.000   0.000   0.000   0.000   0.000


------------------------ aborting loop because EDIFF is reached ----------------------------------------


    CHARGE:  cpu time    0.1678: real time    0.1677
    FORLOC:  cpu time    0.0228: real time    0.0228
    FORNL :  cpu time    0.0511: real time    0.0511
    STRESS:  cpu time    0.1968: real time    0.1968
    FORHAR:  cpu time    0.0569: real time    0.0569
    MIXING:  cpu time    0.0281: real time    0.0281
    OFIELD:  cpu time    0.0001: real time    0.0001

  FORCE on cell =-STRESS in cart. coord.  units (eV):
  Direction    XX          YY          ZZ          XY          YZ          ZX
  --------------------------------------------------------------------------------------
  Alpha Z     0.06187     0.06187     0.06187
  Ewald     -41.14226   -41.14226   160.05268     0.00000     0.00000     0.00000
  Hartree     0.39352     0.39352   140.63782    -0.00000    -0.00000    -0.00000
  E(xc)     -20.28112   -20.28112   -18.24054     0.00000     0.00000    -0.00000
  Local       7.55817     7.55817  -326.71860     0.00000    -0.00000    -0.00000
  n-local   -14.68186   -14.68186   -15.56588     0.00000    -0.00000     0.00000
  augment     0.67279     0.67279     0.65838     0.00000     0.00000     0.00000
  Kinetic    66.46543    66.46543    39.00162    -0.00000     0.00000     0.00000
  Fock        0.00000     0.00000     0.00000     0.00000     0.00000     0.00000
  -------------------------------------------------------------------------------------
  Total      -0.95347    -0.95347   -20.11265    -0.00000    -0.00000    -0.00000
  in kB      -0.60620    -0.60620   -12.78731    -0.00000    -0.00000    -0.00000
  external pressure =       -4.67 kB  Pullay stress =        0.00 kB


 VOLUME and BASIS-vectors are now :
 -----------------------------------------------------------------------------
  energy-cutoff  :      300.00
  volume of cell :     2520.00
      direct lattice vectors                 reciprocal lattice vectors
    15.000000000  0.000000000  0.000000000     0.066666667 -0.000000000  0.000000000
     0.000000000 15.000000000  0.000000000     0.000000000  0.066666667  0.000000000
     0.000000000  0.000000000 11.200000000    -0.000000000 -0.000000000  0.089285714

  length of vectors
    15.000000000 15.000000000 11.200000000     0.066666667  0.066666667  0.089285714


 FORCES acting on ions
    electron-ion (+dipol)            ewald-force                    non-local-force                 convergence-correction
 -----------------------------------------------------------------------------------------------
   0.153E-16 -.109E-16 -.512E-16   0.915E-18 0.200E-17 0.000E+00   -.737E-27 0.202E-27 0.000E+00   -.712E-15 -.228E-15 0.498E-15
   0.112E-16 -.117E-16 0.160E-14   -.243E-18 0.104E-17 0.222E-15   0.120E-26 0.631E-28 0.222E-26   -.716E-15 -.240E-15 0.138E-15
   0.164E-16 -.116E-16 0.298E-14   -.108E-18 0.858E-18 -.111E-15   -.107E-26 -.727E-26 -.485E-26   -.715E-15 -.250E-15 -.280E-15
   0.170E-16 -.126E-16 0.449E-14   -.223E-18 0.472E-18 -.534E-15   -.777E-27 0.000E+00 -.404E-27   -.717E-15 -.236E-15 -.269E-15
   0.150E-16 -.138E-16 0.621E-14   0.322E-18 0.388E-18 -.555E-15   -.197E-26 0.808E-27 -.646E-26   -.706E-15 -.237E-15 -.210E-15
   0.157E-16 -.117E-16 0.773E-14   0.207E-18 0.135E-20 -.222E-15   -.466E-26 0.808E-27 -.162E-26   -.700E-15 -.247E-15 -.247E-15
   0.109E-16 -.150E-16 0.905E-14   0.343E-18 -.182E-18 0.000E+00   -.421E-26 0.000E+00 -.242E-26   -.700E-15 -.245E-15 -.179E-15
   0.125E-16 -.146E-16 0.103E-13   -.816E-18 -.114E-17 0.120E-17   -.150E-26 -.162E-26 -.283E-26   -.707E-15 -.230E-15 0.386E-15
 -----------------------------------------------------------------------------------------------
   0.114E-15 -.102E-15 0.423E-13   0.397E-18 0.344E-17 -.120E-14   -.137E-25 -.701E-26 -.164E-25   -.567E-14 -.191E-14 -.163E-15
 
 
 POSITION                                       TOTAL-FORCE (eV/Angst)
 -----------------------------------------------------------------------------------
      0.00000      0.00000      0.00000         0.000000     -0.000000      0.000000
      0.00000      0.00000      1.40000        -0.000000      0.000000     -0.000000
      0.00000      0.00000      2.80000         0.000000     -0.000000      0.000000
      0.00000      0.00000      4.20000        -0.000000     -0.000000      0.000000
      0.00000      0.00000      5.60000         0.000000     -0.000000      0.000000
      0.00000      0.00000      7.00000        -0.000000     -0.000000     -0.000000
      0.00000      0.00000      8.40000         0.000000      0.000000     -0.000000
      0.00000      0.00000      9.80000        -0.000000      0.000000      0.000000
 -----------------------------------------------------------------------------------
    total drift:                               -0.000000     -0.000000      0.000000


--------------------------------------------------------------------------------------------------------



  FREE ENERGIE OF THE ION-ELECTRON SYSTEM (eV)
  ---------------------------------------------------
  free  energy   TOTEN  =       -18.09542865 eV

  energy  without entropy=      -17.86975282  energy(sigma->0) =      -17.98259074
 


--------------------------------------------------------------------------------------------------------


    POTLOK:  cpu time    0.5914: real time    0.5912


--------------------------------------------------------------------------------------------------------


     LOOP+:  cpu time   22.3384: real time   22.3437
    4ORBIT:  cpu time    0.0000: real time    0.0000

 total amount of memory used by VASP MPI-rank0    96743. kBytes
=======================================================================

   base      :      30000. kBytes
   nonl-proj :       4976. kBytes
   fftplans  :      14271. kBytes
   grid      :      44630. kBytes
   one-center:         19. kBytes
   wavefun   :       2847. kBytes
 
  
  
 General timing and accounting informations for this job:
 ========================================================
  
                  Total CPU time used (sec):       23.179
                            User time (sec):       22.198
                          System time (sec):        0.981
                         Elapsed time (sec):       23.526
  
                   Maximum memory used (kb):      264996.
                   Average memory used (kb):           0.
  
                          Minor page faults:       289221
                          Major page faults:            0
                 Voluntary context switches:         1067
