<?xml version="1.0" encoding="ISO-8859-1"?>
<modeling>
 <generator>
  <i name="program" type="string">vasp </i>
  <i name="version" type="string">5.4.4.18Apr17-6-g9f103f2a35  </i>
  <i name="subversion" type="string">(build Aug 24 2024 05:40:03) complex            parallel </i>
  <i name="platform" type="string">IFC22_IMPI </i>
  <i name="date" type="string">2024 11 22 </i>
  <i name="time" type="string">21:40:47 </i>
 </generator>
 <incar>
  <i type="string" name="PREC">normal</i>
  <i type="int" name="ISPIN">     2</i>
  <i type="int" name="ICHARG">     2</i>
  <i type="int" name="NELM">   100</i>
  <i name="EDIFF">      0.00000100</i>
  <i type="int" name="NSW">     0</i>
  <i name="ENCUT">    300.00000000</i>
  <i name="NUPDOWN">      0.00000000</i>
  <i type="int" name="ISMEAR">     0</i>
  <i name="SIGMA">      0.20000000</i>
  <i type="logical" name="LWAVE"> F  </i>
  <i type="logical" name="LCHARG"> F  </i>
  <v type="int" name="KPOINT_BSE">    -1     0     0     0</v>
  <i type="int" name="NELM">   100</i>
 </incar>
 <structure name="primitive_cell" >
  <crystal>
   <varray name="basis" >
    <v>      15.00000000       0.00000000       0.00000000 </v>
    <v>       0.00000000      15.00000000       0.00000000 </v>
    <v>       0.00000000       0.00000000       1.40000000 </v>
   </varray>
   <i name="volume">    315.00000000 </i>
   <varray name="rec_basis" >
    <v>       0.06666667      -0.00000000       0.00000000 </v>
    <v>       0.00000000       0.06666667       0.00000000 </v>
    <v>      -0.00000000      -0.00000000       0.71428571 </v>
   </varray>
  </crystal>
  <varray name="positions" >
   <v>       0.00000000       0.00000000       0.00000000 </v>
  </varray>
 </structure>
 <varray name="primitive_index" >
  <v type="int" >        1 </v>
 </varray>
 <kpoints>
  <generation param="Gamma">
   <v type="int" name="divisions">       1        1        1 </v>
   <v name="usershift">      0.00000000       0.00000000       0.00000000 </v>
   <v name="genvec1">      1.00000000       0.00000000       0.00000000 </v>
   <v name="genvec2">      0.00000000       1.00000000       0.00000000 </v>
   <v name="genvec3">      0.00000000      -0.00000000       1.00000000 </v>
   <v name="shift">      0.00000000       0.00000000       0.00000000 </v>
  </generation>
  <varray name="kpointlist" >
   <v>       0.00000000       0.00000000       0.00000000 </v>
  </varray>
  <varray name="weights" >
   <v>       1.00000000 </v>
  </varray>
 </kpoints>
 <parameters>
  <separator name="general" >
   <i type="string" name="SYSTEM">unknown system</i>
   <i type="logical" name="LCOMPAT"> F  </i>
  </separator>
  <separator name="electronic" >
   <i type="string" name="PREC">normal</i>
   <i name="ENMAX">    300.00000000</i>
   <i name="ENAUG">    400.00000000</i>
   <i name="EDIFF">      0.00000100</i>
   <i type="int" name="IALGO">    38</i>
   <i type="int" name="IWAVPR">    10</i>
   <i type="int" name="NBANDS">    12</i>
   <i name="NELECT">      8.00000000</i>
   <i type="int" name="TURBO">     0</i>
   <i type="int" name="IRESTART">     0</i>
   <i type="int" name="NREBOOT">     0</i>
   <i type="int" name="NMIN">     0</i>
   <i name="EREF">      0.00000000</i>
   <separator name="electronic smearing" >
    <i type="int" name="ISMEAR">     0</i>
    <i name="SIGMA">      0.20000000</i>
    <i name="KSPACING">      0.50000000</i>
    <i type="logical" name="KGAMMA"> T  </i>
   </separator>
   <separator name="electronic projectors" >
    <i type="logical" name="LREAL"> F  </i>
    <v name="ROPT">      0.00000000</v>
    <i type="int" name="LMAXPAW">  -100</i>
    <i type="int" name="LMAXMIX">     2</i>
    <i type="logical" name="NLSPLINE"> F  </i>
   </separator>
   <separator name="electronic startup" >
    <i type="int" name="ISTART">     0</i>
    <i type="int" name="ICHARG">     2</i>
    <i type="int" name="INIWAV">     1</i>
   </separator>
   <separator name="electronic spin" >
    <i type="int" name="ISPIN">     2</i>
    <i type="logical" name="LNONCOLLINEAR"> F  </i>
    <v name="MAGMOM">      0.00000000      0.00000000      0.00000000      0.00000000      0.00000000      0.00000000      0.00000000      0.00000000</v>
    <i name="NUPDOWN">      0.00000000</i>
    <i type="logical" name="LSORBIT"> F  </i>
    <v name="SAXIS">      0.00000000      0.00000000      1.00000000</v>
    <i type="logical" name="LSPIRAL"> F  </i>
    <v name="QSPIRAL">      0.00000000      0.00000000      0.00000000</v>
    <i type="logical" name="LZEROZ"> F  </i>
   </separator>
   <separator name="electronic exchange-correlation" >
    <i type="logical" name="LASPH"> F  </i>
    <i type="logical" name="LMETAGGA"> F  </i>
   </separator>
   <separator name="electronic convergence" >
    <i type="int" name="NELM">   100</i>
    <i type="int" name="NELMDL">    -5</i>
    <i type="int" name="NELMIN">     2</i>
    <i name="ENINI">    300.00000000</i>
    <separator name="electronic convergence detail" >
     <i type="logical" name="LDIAG"> T  </i>
     <i type="logical" name="LSUBROT"> F  </i>
     <i name="WEIMIN">      0.00000000</i>
     <i name="EBREAK">      0.00000002</i>
     <i name="DEPER">      0.30000000</i>
     <i type="int" name="NRMM">     4</i>
     <i name="TIME">      0.40000000</i>
    </separator>
   </separator>
   <separator name="electronic mixer" >
    <i name="AMIX">      0.40000000</i>
    <i name="BMIX">      1.00000000</i>
    <i name="AMIN">      0.10000000</i>
    <i name="AMIX_MAG">      1.60000000</i>
    <i name="BMIX_MAG">      1.00000000</i>
    <separator name="electronic mixer details" >
     <i type="int" name="IMIX">     4</i>
     <i type="logical" name="MIXFIRST"> F  </i>
     <i type="int" name="MAXMIX">   -45</i>
     <i name="WC">    100.00000000</i>
     <i type="int" name="INIMIX">     1</i>
     <i type="int" name="MIXPRE">     1</i>
     <i type="int" name="MREMOVE">     5</i>
    </separator>
   </separator>
   <separator name="electronic dipolcorrection" >
    <i type="logical" name="LDIPOL"> F  </i>
    <i type="logical" name="LMONO"> F  </i>
    <i type="int" name="IDIPOL">     0</i>
    <i name="EPSILON">      1.00000000</i>
    <v name="DIPOL">   -100.00000000   -100.00000000   -100.00000000</v>
    <i name="EFIELD">      0.00000000</i>
   </separator>
  </separator>
  <separator name="grids" >
   <i type="int" name="NGX">    64</i>
   <i type="int" name="NGY">    64</i>
   <i type="int" name="NGZ">    48</i>
   <i type="int" name="NGXF">   128</i>
   <i type="int" name="NGYF">   128</i>
   <i type="int" name="NGZF">    96</i>
   <i type="logical" name="ADDGRID"> F  </i>
  </separator>
  <separator name="ionic" >
   <i type="int" name="NSW">     0</i>
   <i type="int" name="IBRION">    -1</i>
   <i type="int" name="MDALGO">     0</i>
   <i type="int" name="ISIF">     2</i>
   <i name="PSTRESS">      0.00000000</i>
   <i name="EDIFFG">      0.00001000</i>
   <i type="int" name="NFREE">     0</i>
   <i name="POTIM">      0.50000000</i>
   <i name="SMASS">     -3.00000000</i>
   <i name="SCALEE">      1.00000000</i>
  </separator>
  <separator name="ionic md" >
   <i name="TEBEG">      0.00010000</i>
   <i name="TEEND">      0.00010000</i>
   <i type="int" name="NBLOCK">     1</i>
   <i type="int" name="KBLOCK">     1</i>
   <i type="int" name="NPACO">   256</i>
   <i name="APACO">     16.00000000</i>
  </separator>
  <separator name="symmetry" >
   <i type="int" name="ISYM">     2</i>
   <i name="SYMPREC">      0.00001000</i>
  </separator>
  <separator name="dos" >
   <i type="int" name="LORBIT">     0</i>
   <v name="RWIGS">     -1.00000000</v>
   <i type="int" name="NEDOS">   301</i>
   <i name="EMIN">     10.00000000</i>
   <i name="EMAX">    -10.00000000</i>
   <i name="EFERMI">      0.00000000</i>
  </separator>
  <separator name="writing" >
   <i type="int" name="NWRITE">     2</i>
   <i type="logical" name="LWAVE"> F  </i>
   <i type="logical" name="LDOWNSAMPLE"> F  </i>
   <i type="logical" name="LCHARG"> F  </i>
   <i type="logical" name="LPARD"> F  </i>
   <i type="logical" name="LVTOT"> F  </i>
   <i type="logical" name="LVHAR"> F  </i>
   <i type="logical" name="LELF"> F  </i>
   <i type="logical" name="LOPTICS"> F  </i>
   <v name="STM">      0.00000000      0.00000000      0.00000000      0.00000000      0.00000000      0.00000000      0.00000000</v>
  </separator>
  <separator name="performance" >
   <i type="int" name="NPAR">     4</i>
   <i type="int" name="NSIM">     4</i>
   <i type="int" name="NBLK">    -1</i>
   <i type="logical" name="LPLANE"> T  </i>
   <i type="logical" name="LSCALAPACK"> T  </i>
   <i type="logical" name="LSCAAWARE"> F  </i>
   <i type="logical" name="LSCALU"> F  </i>
   <i type="logical" name="LASYNC"> F  </i>
   <i type="logical" name="LORBITALREAL"> F  </i>
  </separator>
  <separator name="miscellaneous" >
   <i type="int" name="IDIOT">     3</i>
   <i type="int" name="ISPECIAL">     0</i>
   <i type="logical" name="LMUSIC"> F  </i>
   <v name="POMASS">      1.00000000</v>
   <v name="DARWINR">      0.00000000</v>
   <v name="DARWINV">      1.00000000</v>
   <i type="logical" name="LCORR"> T  </i>
  </separator>
  <i type="logical" name="GGA_COMPAT"> T  </i>
  <i type="logical" name="LBERRY"> F  </i>
  <i type="int" name="ICORELEVEL">     0</i>
  <i type="logical" name="LDAU"> F  </i>
  <i type="int" name="I_CONSTRAINED_M">     0</i>
  <separator name="electronic exchange-correlation" >
   <i type="string" name="GGA">--</i>
   <i type="int" name="VOSKOWN">     0</i>
   <i type="logical" name="LHFCALC"> F  </i>
   <i type="string" name="PRECFOCK"></i>
   <i type="logical" name="LSYMGRAD"> F  </i>
   <i type="logical" name="LHFONE"> F  </i>
   <i type="logical" name="LRHFCALC"> F  </i>
   <i type="logical" name="LTHOMAS"> F  </i>
   <i type="logical" name="LMODELHF"> F  </i>
   <i name="ENCUT4O">     -1.00000000</i>
   <i type="int" name="EXXOEP">     0</i>
   <i type="int" name="FOURORBIT">     0</i>
   <i name="AEXX">      0.00000000</i>
   <i name="HFALPHA">      0.00000000</i>
   <i name="MCALPHA">      0.00000000</i>
   <i name="ALDAX">      1.00000000</i>
   <i name="AGGAX">      1.00000000</i>
   <i name="ALDAC">      1.00000000</i>
   <i name="AGGAC">      1.00000000</i>
   <i type="int" name="NKREDX">     1</i>
   <i type="int" name="NKREDY">     1</i>
   <i type="int" name="NKREDZ">     1</i>
   <i type="logical" name="SHIFTRED"> F  </i>
   <i type="logical" name="ODDONLY"> F  </i>
   <i type="logical" name="EVENONLY"> F  </i>
   <i type="int" name="LMAXFOCK">     0</i>
   <i type="int" name="NMAXFOCKAE">     0</i>
   <i type="logical" name="LFOCKAEDFT"> F  </i>
   <i name="HFSCREEN">      0.00000000</i>
   <i name="HFSCREENC">      0.00000000</i>
   <i type="int" name="NBANDSGWLOW">     0</i>
  </separator>
  <separator name="vdW DFT" >
   <i type="logical" name="LUSE_VDW"> F  </i>
   <i name="Zab_VDW">     -0.84910000</i>
   <i name="PARAM1">      0.12340000</i>
   <i name="PARAM2">      1.00000000</i>
   <i name="PARAM3">      0.00000000</i>
  </separator>
  <separator name="model GW" >
   <i type="int" name="MODEL_GW">     0</i>
   <i name="MODEL_EPS0">    189.00000000</i>
   <i name="MODEL_ALPHA">      1.00000000</i>
  </separator>
  <separator name="linear response parameters" >
   <i type="logical" name="LEPSILON"> F  </i>
   <i type="logical" name="LRPA"> F  </i>
   <i type="logical" name="LNABLA"> F  </i>
   <i type="logical" name="LVEL"> F  </i>
   <i type="int" name="KINTER">     0</i>
   <i name="CSHIFT">      0.10000000</i>
   <i name="OMEGAMAX">     -1.00000000</i>
   <i name="DEG_THRESHOLD">      0.00200000</i>
   <i name="RTIME">     -0.10000000</i>
   <i name="WPLASMAI">      0.00000000</i>
   <v name="DFIELD">      0.00000000      0.00000000      0.00000000</v>
   <v name="WPLASMA">      0.00000000      0.00000000      0.00000000      0.00000000      0.00000000      0.00000000      0.00000000      0.00000000      0.00000000</v>
  </separator>
  <separator name="orbital magnetization" >
   <i type="logical" name="NUCIND"> F  </i>
   <v name="MAGPOS">      0.00000000      0.00000000      0.00000000</v>
   <i type="logical" name="LNICSALL"> T  </i>
   <i type="logical" name="ORBITALMAG"> F  </i>
   <i type="logical" name="LMAGBLOCH"> F  </i>
   <i type="logical" name="LCHIMAG"> F  </i>
   <i type="logical" name="LGAUGE"> T  </i>
   <i type="int" name="MAGATOM">     0</i>
   <v name="MAGDIPOL">      0.00000000      0.00000000      0.00000000</v>
   <v name="AVECCONST">      0.00000000      0.00000000      0.00000000</v>
  </separator>
  <separator name="response functions" >
   <i type="logical" name="LADDER"> F  </i>
   <i type="logical" name="LRPAFORCE"> F  </i>
   <i type="logical" name="LFXC"> F  </i>
   <i type="logical" name="LHARTREE"> T  </i>
   <i type="int" name="IBSE">     0</i>
   <v type="int" name="KPOINT">    -1     0     0     0</v>
   <i type="logical" name="LTCTE"> F  </i>
   <i type="logical" name="LTETE"> F  </i>
   <i type="logical" name="LTRIPLET"> F  </i>
   <i type="logical" name="LFXCEPS"> F  </i>
   <i type="logical" name="LFXHEG"> F  </i>
   <i type="int" name="NATURALO">     2</i>
   <i type="logical" name="L2ORDER"> F  </i>
   <i type="logical" name="LMP2LT"> F  </i>
   <i type="logical" name="LUSEW"> F  </i>
   <i name="ENCUTGW">     -2.00000000</i>
   <i name="ENCUTGWSOFT">     -2.00000000</i>
   <i name="ENCUTLF">     -1.00000000</i>
   <i type="int" name="LMAXMP2">    -1</i>
   <i name="SCISSOR">      0.00000000</i>
   <i type="int" name="NOMEGA">     0</i>
   <i type="int" name="NOMEGAR">     0</i>
   <i type="int" name="NBANDSGW">    -1</i>
   <i type="int" name="NBANDSO">    -1</i>
   <i type="int" name="NBANDSV">    -1</i>
   <i type="int" name="NELM">   100</i>
   <i type="int" name="NELMHF">     1</i>
   <i type="int" name="DIM">     3</i>
   <i type="int" name="ANTIRES">     0</i>
   <i name="OMEGAMAX">    -30.00000000</i>
   <i name="OMEGAMIN">    -30.00000000</i>
   <i name="OMEGATL">   -200.00000000</i>
   <i type="int" name="OMEGAGRID">   140</i>
   <i name="CSHIFT">     -0.10000000</i>
   <i type="logical" name="SELFENERGY"> F  </i>
   <i type="logical" name="LSPECTRAL"> F  </i>
   <i type="logical" name="LSPECTRALGW"> F  </i>
   <i type="logical" name="LSINGLES"> F  </i>
   <i type="logical" name="LFERMIGW"> F  </i>
   <i type="logical" name="ODDONLYGW"> F  </i>
   <i type="logical" name="EVENONLYGW"> F  </i>
   <i type="int" name="NKREDLFX">     1</i>
   <i type="int" name="NKREDLFY">     1</i>
   <i type="int" name="NKREDLFZ">     1</i>
   <i type="int" name="MAXMEM">  2800</i>
   <i type="int" name="TELESCOPE">     0</i>
   <i type="int" name="TAUPAR">     1</i>
   <i type="int" name="OMEGAPAR">    -1</i>
   <i name="LAMBDA">      1.00000000</i>
  </separator>
  <separator name="External order field" >
   <i name="OFIELD_KAPPA">      0.00000000</i>
   <v name="OFIELD_K">      0.00000000      0.00000000      0.00000000</v>
   <i name="OFIELD_Q6_NEAR">      0.00000000</i>
   <i name="OFIELD_Q6_FAR">      0.00000000</i>
   <i name="OFIELD_A">      0.00000000</i>
  </separator>
 </parameters>
 <atominfo>
  <atoms>       8 </atoms>
  <types>       1 </types>
  <array name="atoms" >
   <dimension dim="1">ion</dimension>
   <field type="string">element</field>
   <field type="int">atomtype</field>
   <set>
    <rc><c>H </c><c>   1</c></rc>
    <rc><c>H </c><c>   1</c></rc>
    <rc><c>H </c><c>   1</c></rc>
    <rc><c>H </c><c>   1</c></rc>
    <rc><c>H </c><c>   1</c></rc>
    <rc><c>H </c><c>   1</c></rc>
    <rc><c>H </c><c>   1</c></rc>
    <rc><c>H </c><c>   1</c></rc>
   </set>
  </array>
  <array name="atomtypes" >
   <dimension dim="1">type</dimension>
   <field type="int">atomspertype</field>
   <field type="string">element</field>
   <field>mass</field>
   <field>valence</field>
   <field type="string">pseudopotential</field>
   <set>
    <rc><c>   8</c><c>H </c><c>      1.00000000</c><c>      1.00000000</c><c>  PAW_PBE H 15Jun2001                   </c></rc>
   </set>
  </array>
 </atominfo>
 <structure name="initialpos" >
  <crystal>
   <varray name="basis" >
    <v>      15.00000000       0.00000000       0.00000000 </v>
    <v>       0.00000000      15.00000000       0.00000000 </v>
    <v>       0.00000000       0.00000000      11.20000000 </v>
   </varray>
   <i name="volume">   2520.00000000 </i>
   <varray name="rec_basis" >
    <v>       0.06666667      -0.00000000       0.00000000 </v>
    <v>       0.00000000       0.06666667       0.00000000 </v>
    <v>      -0.00000000      -0.00000000       0.08928571 </v>
   </varray>
  </crystal>
  <varray name="positions" >
   <v>       0.00000000       0.00000000       0.00000000 </v>
   <v>       0.00000000       0.00000000       0.12500000 </v>
   <v>       0.00000000       0.00000000       0.25000000 </v>
   <v>       0.00000000       0.00000000       0.37500000 </v>
   <v>       0.00000000       0.00000000       0.50000000 </v>
   <v>       0.00000000       0.00000000       0.62500000 </v>
   <v>       0.00000000       0.00000000       0.75000000 </v>
   <v>       0.00000000       0.00000000       0.87500000 </v>
  </varray>
 </structure>
 <calculation>
  <scstep>
   <time name="dav">    0.41    0.41</time>
   <time name="total">    0.98    0.98</time>
   <energy>
    <i name="alphaZ">      0.06187092 </i>
    <i name="ewald">     77.76819068 </i>
    <i name="hartreedc">   -133.96818443 </i>
    <i name="XCdc">     16.98405174 </i>
    <i name="pawpsdc">     17.07221949 </i>
    <i name="pawaedc">    -17.14324176 </i>
    <i name="eentropy">     -0.10244003 </i>
    <i name="bandstr">    -52.47694513 </i>
    <i name="atom">     99.56620307 </i>
    <i name="e_fr_energy">      7.76172454 </i>
    <i name="e_wo_entrp">      7.86416457 </i>
    <i name="e_0_energy">      7.81294456 </i>
   </energy>
  </scstep>
  <scstep>
   <time name="dav">    0.52    0.52</time>
   <time name="total">    0.52    0.52</time>
   <energy>
    <i name="e_fr_energy">    -16.07660801 </i>
    <i name="e_wo_entrp">    -16.07660787 </i>
    <i name="e_0_energy">    -16.07660794 </i>
   </energy>
  </scstep>
  <scstep>
   <time name="dav">    0.43    0.43</time>
   <time name="total">    0.43    0.43</time>
   <energy>
    <i name="e_fr_energy">    -18.08359591 </i>
    <i name="e_wo_entrp">    -17.86061161 </i>
    <i name="e_0_energy">    -17.97210376 </i>
   </energy>
  </scstep>
  <scstep>
   <time name="dav">    0.51    0.51</time>
   <time name="total">    0.52    0.51</time>
   <energy>
    <i name="e_fr_energy">    -18.15761056 </i>
    <i name="e_wo_entrp">    -17.93193509 </i>
    <i name="e_0_energy">    -18.04477283 </i>
   </energy>
  </scstep>
  <scstep>
   <time name="dav">    0.50    0.50</time>
   <time name="total">    0.68    0.68</time>
   <energy>
    <i name="e_fr_energy">    -18.15861548 </i>
    <i name="e_wo_entrp">    -17.93293965 </i>
    <i name="e_0_energy">    -18.04577756 </i>
   </energy>
  </scstep>
  <scstep>
   <time name="dav">    0.37    0.37</time>
   <time name="total">    1.14    1.14</time>
   <energy>
    <i name="e_fr_energy">    -18.12662237 </i>
    <i name="e_wo_entrp">    -17.90094653 </i>
    <i name="e_0_energy">    -18.01378445 </i>
   </energy>
  </scstep>
  <scstep>
   <time name="dav">    0.37    0.37</time>
   <time name="total">    1.13    1.13</time>
   <energy>
    <i name="e_fr_energy">    -18.08893277 </i>
    <i name="e_wo_entrp">    -17.86325694 </i>
    <i name="e_0_energy">    -17.97609486 </i>
   </energy>
  </scstep>
  <scstep>
   <time name="dav">    0.36    0.36</time>
   <time name="total">    1.12    1.12</time>
   <energy>
    <i name="e_fr_energy">    -18.09100315 </i>
    <i name="e_wo_entrp">    -17.86532732 </i>
    <i name="e_0_energy">    -17.97816524 </i>
   </energy>
  </scstep>
  <scstep>
   <time name="dav">    0.41    0.41</time>
   <time name="total">    1.17    1.17</time>
   <energy>
    <i name="e_fr_energy">    -18.09139959 </i>
    <i name="e_wo_entrp">    -17.86572376 </i>
    <i name="e_0_energy">    -17.97856167 </i>
   </energy>
  </scstep>
  <scstep>
   <time name="dav">    0.37    0.37</time>
   <time name="total">    1.14    1.14</time>
   <energy>
    <i name="e_fr_energy">    -18.09265701 </i>
    <i name="e_wo_entrp">    -17.86698117 </i>
    <i name="e_0_energy">    -17.97981909 </i>
   </energy>
  </scstep>
  <scstep>
   <time name="dav">    0.36    0.36</time>
   <time name="total">    1.12    1.13</time>
   <energy>
    <i name="e_fr_energy">    -18.09258523 </i>
    <i name="e_wo_entrp">    -17.86690939 </i>
    <i name="e_0_energy">    -17.97974731 </i>
   </energy>
  </scstep>
  <scstep>
   <time name="dav">    0.37    0.37</time>
   <time name="total">    1.13    1.13</time>
   <energy>
    <i name="e_fr_energy">    -18.09418204 </i>
    <i name="e_wo_entrp">    -17.86850621 </i>
    <i name="e_0_energy">    -17.98134413 </i>
   </energy>
  </scstep>
  <scstep>
   <time name="dav">    0.36    0.36</time>
   <time name="total">    1.12    1.12</time>
   <energy>
    <i name="e_fr_energy">    -18.09489398 </i>
    <i name="e_wo_entrp">    -17.86921814 </i>
    <i name="e_0_energy">    -17.98205606 </i>
   </energy>
  </scstep>
  <scstep>
   <time name="dav">    0.37    0.37</time>
   <time name="total">    1.14    1.14</time>
   <energy>
    <i name="e_fr_energy">    -18.09518285 </i>
    <i name="e_wo_entrp">    -17.86950702 </i>
    <i name="e_0_energy">    -17.98234494 </i>
   </energy>
  </scstep>
  <scstep>
   <time name="dav">    0.37    0.37</time>
   <time name="total">    1.16    1.16</time>
   <energy>
    <i name="e_fr_energy">    -18.09537253 </i>
    <i name="e_wo_entrp">    -17.86969669 </i>
    <i name="e_0_energy">    -17.98253461 </i>
   </energy>
  </scstep>
  <scstep>
   <time name="dav">    0.38    0.38</time>
   <time name="total">    1.16    1.16</time>
   <energy>
    <i name="e_fr_energy">    -18.09538700 </i>
    <i name="e_wo_entrp">    -17.86971116 </i>
    <i name="e_0_energy">    -17.98254908 </i>
   </energy>
  </scstep>
  <scstep>
   <time name="dav">    0.37    0.37</time>
   <time name="total">    1.14    1.14</time>
   <energy>
    <i name="e_fr_energy">    -18.09542301 </i>
    <i name="e_wo_entrp">    -17.86974718 </i>
    <i name="e_0_energy">    -17.98258509 </i>
   </energy>
  </scstep>
  <scstep>
   <time name="dav">    0.37    0.37</time>
   <time name="total">    1.15    1.15</time>
   <energy>
    <i name="e_fr_energy">    -18.09542409 </i>
    <i name="e_wo_entrp">    -17.86974825 </i>
    <i name="e_0_energy">    -17.98258617 </i>
   </energy>
  </scstep>
  <scstep>
   <time name="dav">    0.37    0.37</time>
   <time name="total">    1.15    1.15</time>
   <energy>
    <i name="e_fr_energy">    -18.09542681 </i>
    <i name="e_wo_entrp">    -17.86975098 </i>
    <i name="e_0_energy">    -17.98258890 </i>
   </energy>
  </scstep>
  <scstep>
   <time name="dav">    0.37    0.37</time>
   <time name="total">    1.15    1.15</time>
   <energy>
    <i name="e_fr_energy">    -18.09542829 </i>
    <i name="e_wo_entrp">    -17.86975245 </i>
    <i name="e_0_energy">    -17.98259037 </i>
   </energy>
  </scstep>
  <scstep>
   <time name="dav">    0.37    0.37</time>
   <time name="total">    0.96    0.96</time>
   <energy>
    <i name="alphaZ">      0.06187092 </i>
    <i name="ewald">     77.76819068 </i>
    <i name="hartreedc">   -141.42460791 </i>
    <i name="XCdc">     17.88142133 </i>
    <i name="pawpsdc">     34.66716086 </i>
    <i name="pawaedc">    -34.74442030 </i>
    <i name="eentropy">     -0.22567583 </i>
    <i name="bandstr">    -71.64557147 </i>
    <i name="atom">     99.56620307 </i>
    <i name="e_fr_energy">    -18.09542865 </i>
    <i name="e_wo_entrp">    -17.86975282 </i>
    <i name="e_0_energy">    -17.98259074 </i>
   </energy>
  </scstep>
  <structure>
   <crystal>
    <varray name="basis" >
     <v>      15.00000000       0.00000000       0.00000000 </v>
     <v>       0.00000000      15.00000000       0.00000000 </v>
     <v>       0.00000000       0.00000000      11.20000000 </v>
    </varray>
    <i name="volume">   2520.00000000 </i>
    <varray name="rec_basis" >
     <v>       0.06666667      -0.00000000       0.00000000 </v>
     <v>       0.00000000       0.06666667       0.00000000 </v>
     <v>      -0.00000000      -0.00000000       0.08928571 </v>
    </varray>
   </crystal>
   <varray name="positions" >
    <v>       0.00000000       0.00000000       0.00000000 </v>
    <v>       0.00000000       0.00000000       0.12500000 </v>
    <v>       0.00000000       0.00000000       0.25000000 </v>
    <v>       0.00000000       0.00000000       0.37500000 </v>
    <v>       0.00000000       0.00000000       0.50000000 </v>
    <v>       0.00000000       0.00000000       0.62500000 </v>
    <v>       0.00000000       0.00000000       0.75000000 </v>
    <v>       0.00000000       0.00000000       0.87500000 </v>
   </varray>
  </structure>
  <varray name="forces" >
   <v>       0.00000000      -0.00000000       0.00000000 </v>
   <v>      -0.00000000       0.00000000      -0.00000000 </v>
   <v>       0.00000000      -0.00000000       0.00000000 </v>
   <v>      -0.00000000      -0.00000000       0.00000000 </v>
   <v>       0.00000000      -0.00000000       0.00000000 </v>
   <v>      -0.00000000      -0.00000000      -0.00000000 </v>
   <v>       0.00000000       0.00000000      -0.00000000 </v>
   <v>      -0.00000000       0.00000000       0.00000000 </v>
  </varray>
  <varray name="stress" >
   <v>      -0.60619943      -0.00000000      -0.00000000 </v>
   <v>      -0.00000000      -0.60619943      -0.00000000 </v>
   <v>      -0.00000000      -0.00000000     -12.78731404 </v>
  </varray>
  <energy>
   <i name="e_fr_energy">    -18.09542865 </i>
   <i name="e_wo_entrp">    -17.98259074 </i>
   <i name="e_0_energy">     -0.22567583 </i>
  </energy>
  <time name="totalsc">   22.34   22.34</time>
  <eigenvalues>
   <array>
    <dimension dim="1">band</dimension>
    <dimension dim="2">kpoint</dimension>
    <dimension dim="3">spin</dimension>
    <field>eigene</field>
    <field>occ</field>
    <set>
     <set comment="spin 1">
      <set comment="kpoint 1">
       <r>  -10.6773    1.0000 </r>
       <r>   -9.5247    1.0000 </r>
       <r>   -9.5247    1.0000 </r>
       <r>   -6.0962    0.5000 </r>
       <r>   -6.0962    0.5000 </r>
       <r>   -0.6206    0.0000 </r>
       <r>   -0.6206    0.0000 </r>
       <r>   -0.1660    0.0000 </r>
       <r>   -0.1660    0.0000 </r>
       <r>   -0.1190    0.0000 </r>
       <r>    0.5972    0.0000 </r>
       <r>    0.6007    0.0000 </r>
      </set>
     </set>
     <set comment="spin 2">
      <set comment="kpoint 1">
       <r>  -10.6773    1.0000 </r>
       <r>   -9.5247    1.0000 </r>
       <r>   -9.5247    1.0000 </r>
       <r>   -6.0962    0.5000 </r>
       <r>   -6.0962    0.5000 </r>
       <r>   -0.6206    0.0000 </r>
       <r>   -0.6206    0.0000 </r>
       <r>   -0.1659    0.0000 </r>
       <r>   -0.1659    0.0000 </r>
       <r>   -0.1187    0.0000 </r>
       <r>    0.5976    0.0000 </r>
       <r>    0.6008    0.0000 </r>
      </set>
     </set>
    </set>
   </array>
  </eigenvalues>
  <separator name="orbital magnetization" >
   <v name="MAGDIPOLOUT">      0.00000000      0.00000000      0.00000000</v>
  </separator>
  <dos>
   <i name="efermi">     -6.09620097 </i>
   <total>
    <array>
     <dimension dim="1">gridpoints</dimension>
     <dimension dim="2">spin</dimension>
     <field>energy</field>
     <field>total</field>
     <field>integrated</field>
     <set>
      <set comment="spin 1">
       <r>   -12.6773     0.0000     0.0000 </r>
       <r>   -12.6264     0.0000     0.0000 </r>
       <r>   -12.5754     0.0000     0.0000 </r>
       <r>   -12.5245     0.0000     0.0000 </r>
       <r>   -12.4736     0.0000     0.0000 </r>
       <r>   -12.4226     0.0000     0.0000 </r>
       <r>   -12.3717     0.0000     0.0000 </r>
       <r>   -12.3208     0.0000     0.0000 </r>
       <r>   -12.2699     0.0000     0.0000 </r>
       <r>   -12.2189     0.0000     0.0000 </r>
       <r>   -12.1680     0.0000     0.0000 </r>
       <r>   -12.1171     0.0000     0.0000 </r>
       <r>   -12.0662     0.0000     0.0000 </r>
       <r>   -12.0152     0.0000     0.0000 </r>
       <r>   -11.9643     0.0000     0.0000 </r>
       <r>   -11.9134     0.0000     0.0000 </r>
       <r>   -11.8624     0.0000     0.0000 </r>
       <r>   -11.8115     0.0000     0.0000 </r>
       <r>   -11.7606     0.0000     0.0000 </r>
       <r>   -11.7097     0.0000     0.0000 </r>
       <r>   -11.6587     0.0000     0.0000 </r>
       <r>   -11.6078     0.0000     0.0000 </r>
       <r>   -11.5569     0.0000     0.0000 </r>
       <r>   -11.5060     0.0000     0.0000 </r>
       <r>   -11.4550     0.0000     0.0000 </r>
       <r>   -11.4041     0.0000     0.0000 </r>
       <r>   -11.3532     0.0000     0.0000 </r>
       <r>   -11.3023     0.0002     0.0000 </r>
       <r>   -11.2513     0.0008     0.0000 </r>
       <r>   -11.2004     0.0033     0.0002 </r>
       <r>   -11.1495     0.0123     0.0008 </r>
       <r>   -11.0985     0.0403     0.0029 </r>
       <r>   -11.0476     0.1165     0.0088 </r>
       <r>   -10.9967     0.2962     0.0239 </r>
       <r>   -10.9458     0.6623     0.0576 </r>
       <r>   -10.8948     1.3025     0.1240 </r>
       <r>   -10.8439     2.2530     0.2387 </r>
       <r>   -10.7930     3.4281     0.4133 </r>
       <r>   -10.7421     4.5881     0.6470 </r>
       <r>   -10.6911     5.4012     0.9220 </r>
       <r>   -10.6402     5.5929     1.2068 </r>
       <r>   -10.5893     5.0941     1.4663 </r>
       <r>   -10.5383     4.0812     1.6741 </r>
       <r>   -10.4874     2.8760     1.8206 </r>
       <r>   -10.4365     1.7827     1.9114 </r>
       <r>   -10.3856     0.9719     1.9609 </r>
       <r>   -10.3346     0.4661     1.9846 </r>
       <r>   -10.2837     0.1966     1.9946 </r>
       <r>   -10.2328     0.0730     1.9983 </r>
       <r>   -10.1819     0.0239     1.9995 </r>
       <r>   -10.1309     0.0074     1.9999 </r>
       <r>   -10.0800     0.0044     2.0001 </r>
       <r>   -10.0291     0.0112     2.0007 </r>
       <r>    -9.9781     0.0386     2.0027 </r>
       <r>    -9.9272     0.1208     2.0088 </r>
       <r>    -9.8763     0.3331     2.0258 </r>
       <r>    -9.8254     0.8079     2.0669 </r>
       <r>    -9.7744     1.7233     2.1547 </r>
       <r>    -9.7235     3.2332     2.3194 </r>
       <r>    -9.6726     5.3356     2.5911 </r>
       <r>    -9.6217     7.7450     2.9855 </r>
       <r>    -9.5707     9.8888     3.4891 </r>
       <r>    -9.5198    11.1058     4.0547 </r>
       <r>    -9.4689    10.9709     4.6134 </r>
       <r>    -9.4179     9.5329     5.0989 </r>
       <r>    -9.3670     7.2861     5.4700 </r>
       <r>    -9.3161     4.8983     5.7194 </r>
       <r>    -9.2652     2.8965     5.8669 </r>
       <r>    -9.2142     1.5066     5.9437 </r>
       <r>    -9.1633     0.6892     5.9788 </r>
       <r>    -9.1124     0.2773     5.9929 </r>
       <r>    -9.0615     0.0982     5.9979 </r>
       <r>    -9.0105     0.0306     5.9994 </r>
       <r>    -8.9596     0.0084     5.9999 </r>
       <r>    -8.9087     0.0020     6.0000 </r>
       <r>    -8.8578     0.0004     6.0000 </r>
       <r>    -8.8068     0.0001     6.0000 </r>
       <r>    -8.7559     0.0000     6.0000 </r>
       <r>    -8.7050     0.0000     6.0000 </r>
       <r>    -8.6540     0.0000     6.0000 </r>
       <r>    -8.6031     0.0000     6.0000 </r>
       <r>    -8.5522     0.0000     6.0000 </r>
       <r>    -8.5013     0.0000     6.0000 </r>
       <r>    -8.4503     0.0000     6.0000 </r>
       <r>    -8.3994     0.0000     6.0000 </r>
       <r>    -8.3485     0.0000     6.0000 </r>
       <r>    -8.2976     0.0000     6.0000 </r>
       <r>    -8.2466     0.0000     6.0000 </r>
       <r>    -8.1957     0.0000     6.0000 </r>
       <r>    -8.1448     0.0000     6.0000 </r>
       <r>    -8.0938     0.0000     6.0000 </r>
       <r>    -8.0429     0.0000     6.0000 </r>
       <r>    -7.9920     0.0000     6.0000 </r>
       <r>    -7.9411     0.0000     6.0000 </r>
       <r>    -7.8901     0.0000     6.0000 </r>
       <r>    -7.8392     0.0000     6.0000 </r>
       <r>    -7.7883     0.0000     6.0000 </r>
       <r>    -7.7374     0.0000     6.0000 </r>
       <r>    -7.6864     0.0000     6.0000 </r>
       <r>    -7.6355     0.0000     6.0000 </r>
       <r>    -7.5846     0.0000     6.0000 </r>
       <r>    -7.5336     0.0000     6.0000 </r>
       <r>    -7.4827     0.0000     6.0000 </r>
       <r>    -7.4318     0.0000     6.0000 </r>
       <r>    -7.3809     0.0000     6.0000 </r>
       <r>    -7.3299     0.0000     6.0000 </r>
       <r>    -7.2790     0.0000     6.0000 </r>
       <r>    -7.2281     0.0000     6.0000 </r>
       <r>    -7.1772     0.0000     6.0000 </r>
       <r>    -7.1262     0.0000     6.0000 </r>
       <r>    -7.0753     0.0000     6.0000 </r>
       <r>    -7.0244     0.0000     6.0000 </r>
       <r>    -6.9734     0.0000     6.0000 </r>
       <r>    -6.9225     0.0000     6.0000 </r>
       <r>    -6.8716     0.0000     6.0000 </r>
       <r>    -6.8207     0.0000     6.0000 </r>
       <r>    -6.7697     0.0001     6.0000 </r>
       <r>    -6.7188     0.0003     6.0000 </r>
       <r>    -6.6679     0.0017     6.0001 </r>
       <r>    -6.6170     0.0070     6.0005 </r>
       <r>    -6.5660     0.0260     6.0018 </r>
       <r>    -6.5151     0.0849     6.0061 </r>
       <r>    -6.4642     0.2440     6.0185 </r>
       <r>    -6.4133     0.6166     6.0499 </r>
       <r>    -6.3623     1.3705     6.1197 </r>
       <r>    -6.3114     2.6794     6.2562 </r>
       <r>    -6.2605     4.6076     6.4908 </r>
       <r>    -6.2095     6.9691     6.8458 </r>
       <r>    -6.1586     9.2720     7.3180 </r>
       <r>    -6.1077    10.8505     7.8705 </r>
       <r>    -6.0568    11.1690     8.4393 </r>
       <r>    -6.0058    10.1127     8.9544 </r>
       <r>    -5.9549     8.0539     9.3645 </r>
       <r>    -5.9040     5.6420     9.6518 </r>
       <r>    -5.8531     3.4764     9.8289 </r>
       <r>    -5.8021     1.8842     9.9248 </r>
       <r>    -5.7512     0.8982     9.9706 </r>
       <r>    -5.7003     0.3766     9.9898 </r>
       <r>    -5.6493     0.1389     9.9968 </r>
       <r>    -5.5984     0.0451     9.9991 </r>
       <r>    -5.5475     0.0129     9.9998 </r>
       <r>    -5.4966     0.0032    10.0000 </r>
       <r>    -5.4456     0.0007    10.0000 </r>
       <r>    -5.3947     0.0001    10.0000 </r>
       <r>    -5.3438     0.0000    10.0000 </r>
       <r>    -5.2929     0.0000    10.0000 </r>
       <r>    -5.2419     0.0000    10.0000 </r>
       <r>    -5.1910     0.0000    10.0000 </r>
       <r>    -5.1401     0.0000    10.0000 </r>
       <r>    -5.0891     0.0000    10.0000 </r>
       <r>    -5.0382     0.0000    10.0000 </r>
       <r>    -4.9873     0.0000    10.0000 </r>
       <r>    -4.9364     0.0000    10.0000 </r>
       <r>    -4.8854     0.0000    10.0000 </r>
       <r>    -4.8345     0.0000    10.0000 </r>
       <r>    -4.7836     0.0000    10.0000 </r>
       <r>    -4.7327     0.0000    10.0000 </r>
       <r>    -4.6817     0.0000    10.0000 </r>
       <r>    -4.6308     0.0000    10.0000 </r>
       <r>    -4.5799     0.0000    10.0000 </r>
       <r>    -4.5289     0.0000    10.0000 </r>
       <r>    -4.4780     0.0000    10.0000 </r>
       <r>    -4.4271     0.0000    10.0000 </r>
       <r>    -4.3762     0.0000    10.0000 </r>
       <r>    -4.3252     0.0000    10.0000 </r>
       <r>    -4.2743     0.0000    10.0000 </r>
       <r>    -4.2234     0.0000    10.0000 </r>
       <r>    -4.1725     0.0000    10.0000 </r>
       <r>    -4.1215     0.0000    10.0000 </r>
       <r>    -4.0706     0.0000    10.0000 </r>
       <r>    -4.0197     0.0000    10.0000 </r>
       <r>    -3.9688     0.0000    10.0000 </r>
       <r>    -3.9178     0.0000    10.0000 </r>
       <r>    -3.8669     0.0000    10.0000 </r>
       <r>    -3.8160     0.0000    10.0000 </r>
       <r>    -3.7650     0.0000    10.0000 </r>
       <r>    -3.7141     0.0000    10.0000 </r>
       <r>    -3.6632     0.0000    10.0000 </r>
       <r>    -3.6123     0.0000    10.0000 </r>
       <r>    -3.5613     0.0000    10.0000 </r>
       <r>    -3.5104     0.0000    10.0000 </r>
       <r>    -3.4595     0.0000    10.0000 </r>
       <r>    -3.4086     0.0000    10.0000 </r>
       <r>    -3.3576     0.0000    10.0000 </r>
       <r>    -3.3067     0.0000    10.0000 </r>
       <r>    -3.2558     0.0000    10.0000 </r>
       <r>    -3.2048     0.0000    10.0000 </r>
       <r>    -3.1539     0.0000    10.0000 </r>
       <r>    -3.1030     0.0000    10.0000 </r>
       <r>    -3.0521     0.0000    10.0000 </r>
       <r>    -3.0011     0.0000    10.0000 </r>
       <r>    -2.9502     0.0000    10.0000 </r>
       <r>    -2.8993     0.0000    10.0000 </r>
       <r>    -2.8484     0.0000    10.0000 </r>
       <r>    -2.7974     0.0000    10.0000 </r>
       <r>    -2.7465     0.0000    10.0000 </r>
       <r>    -2.6956     0.0000    10.0000 </r>
       <r>    -2.6446     0.0000    10.0000 </r>
       <r>    -2.5937     0.0000    10.0000 </r>
       <r>    -2.5428     0.0000    10.0000 </r>
       <r>    -2.4919     0.0000    10.0000 </r>
       <r>    -2.4409     0.0000    10.0000 </r>
       <r>    -2.3900     0.0000    10.0000 </r>
       <r>    -2.3391     0.0000    10.0000 </r>
       <r>    -2.2882     0.0000    10.0000 </r>
       <r>    -2.2372     0.0000    10.0000 </r>
       <r>    -2.1863     0.0000    10.0000 </r>
       <r>    -2.1354     0.0000    10.0000 </r>
       <r>    -2.0844     0.0000    10.0000 </r>
       <r>    -2.0335     0.0000    10.0000 </r>
       <r>    -1.9826     0.0000    10.0000 </r>
       <r>    -1.9317     0.0000    10.0000 </r>
       <r>    -1.8807     0.0000    10.0000 </r>
       <r>    -1.8298     0.0000    10.0000 </r>
       <r>    -1.7789     0.0000    10.0000 </r>
       <r>    -1.7280     0.0000    10.0000 </r>
       <r>    -1.6770     0.0000    10.0000 </r>
       <r>    -1.6261     0.0000    10.0000 </r>
       <r>    -1.5752     0.0000    10.0000 </r>
       <r>    -1.5243     0.0000    10.0000 </r>
       <r>    -1.4733     0.0000    10.0000 </r>
       <r>    -1.4224     0.0000    10.0000 </r>
       <r>    -1.3715     0.0000    10.0000 </r>
       <r>    -1.3205     0.0000    10.0000 </r>
       <r>    -1.2696     0.0001    10.0000 </r>
       <r>    -1.2187     0.0007    10.0000 </r>
       <r>    -1.1678     0.0034    10.0002 </r>
       <r>    -1.1168     0.0134    10.0009 </r>
       <r>    -1.0659     0.0468    10.0033 </r>
       <r>    -1.0150     0.1436    10.0106 </r>
       <r>    -0.9641     0.3878    10.0303 </r>
       <r>    -0.9131     0.9211    10.0772 </r>
       <r>    -0.8622     1.9244    10.1753 </r>
       <r>    -0.8113     3.5366    10.3554 </r>
       <r>    -0.7603     5.7172    10.6465 </r>
       <r>    -0.7094     8.1315    11.0606 </r>
       <r>    -0.6585    10.1808    11.5791 </r>
       <r>    -0.6076    11.2397    12.1515 </r>
       <r>    -0.5566    11.0010    12.7118 </r>
       <r>    -0.5057     9.7058    13.2061 </r>
       <r>    -0.4548     8.0907    13.6181 </r>
       <r>    -0.4039     7.0764    13.9785 </r>
       <r>    -0.3529     7.3678    14.3537 </r>
       <r>    -0.3020     9.1427    14.8193 </r>
       <r>    -0.2511    11.9318    15.4270 </r>
       <r>    -0.2001    14.7504    16.1782 </r>
       <r>    -0.1492    16.4809    17.0175 </r>
       <r>    -0.0983    16.3726    17.8513 </r>
       <r>    -0.0474    14.3866    18.5840 </r>
       <r>     0.0036    11.1646    19.1525 </r>
       <r>     0.0545     7.6511    19.5422 </r>
       <r>     0.1054     4.6383    19.7784 </r>
       <r>     0.1563     2.5176    19.9066 </r>
       <r>     0.2073     1.3144    19.9736 </r>
       <r>     0.2582     0.8906    20.0189 </r>
       <r>     0.3091     1.1382    20.0769 </r>
       <r>     0.3601     2.0511    20.1813 </r>
       <r>     0.4110     3.6551    20.3675 </r>
       <r>     0.4619     5.8458    20.6652 </r>
       <r>     0.5128     8.2503    21.0853 </r>
       <r>     0.5638    10.2472    21.6072 </r>
       <r>     0.6147    11.1962    22.1774 </r>
       <r>     0.6656    10.7606    22.7254 </r>
       <r>     0.7165     9.0970    23.1887 </r>
       <r>     0.7675     6.7648    23.5332 </r>
       <r>     0.8184     4.4249    23.7585 </r>
       <r>     0.8693     2.5459    23.8882 </r>
       <r>     0.9202     1.2884    23.9538 </r>
       <r>     0.9712     0.5735    23.9830 </r>
       <r>     1.0221     0.2246    23.9945 </r>
       <r>     1.0730     0.0773    23.9984 </r>
       <r>     1.1240     0.0234    23.9996 </r>
       <r>     1.1749     0.0062    23.9999 </r>
       <r>     1.2258     0.0015    24.0000 </r>
       <r>     1.2767     0.0003    24.0000 </r>
       <r>     1.3277     0.0001    24.0000 </r>
       <r>     1.3786     0.0000    24.0000 </r>
       <r>     1.4295     0.0000    24.0000 </r>
       <r>     1.4804     0.0000    24.0000 </r>
       <r>     1.5314     0.0000    24.0000 </r>
       <r>     1.5823     0.0000    24.0000 </r>
       <r>     1.6332     0.0000    24.0000 </r>
       <r>     1.6842     0.0000    24.0000 </r>
       <r>     1.7351     0.0000    24.0000 </r>
       <r>     1.7860     0.0000    24.0000 </r>
       <r>     1.8369     0.0000    24.0000 </r>
       <r>     1.8879     0.0000    24.0000 </r>
       <r>     1.9388     0.0000    24.0000 </r>
       <r>     1.9897     0.0000    24.0000 </r>
       <r>     2.0406     0.0000    24.0000 </r>
       <r>     2.0916     0.0000    24.0000 </r>
       <r>     2.1425     0.0000    24.0000 </r>
       <r>     2.1934     0.0000    24.0000 </r>
       <r>     2.2444     0.0000    24.0000 </r>
       <r>     2.2953     0.0000    24.0000 </r>
       <r>     2.3462     0.0000    24.0000 </r>
       <r>     2.3971     0.0000    24.0000 </r>
       <r>     2.4481     0.0000    24.0000 </r>
       <r>     2.4990     0.0000    24.0000 </r>
       <r>     2.5499     0.0000    24.0000 </r>
       <r>     2.6008     0.0000    24.0000 </r>
      </set>
      <set comment="spin 2">
       <r>   -12.6773     0.0000     0.0000 </r>
       <r>   -12.6264     0.0000     0.0000 </r>
       <r>   -12.5754     0.0000     0.0000 </r>
       <r>   -12.5245     0.0000     0.0000 </r>
       <r>   -12.4736     0.0000     0.0000 </r>
       <r>   -12.4226     0.0000     0.0000 </r>
       <r>   -12.3717     0.0000     0.0000 </r>
       <r>   -12.3208     0.0000     0.0000 </r>
       <r>   -12.2699     0.0000     0.0000 </r>
       <r>   -12.2189     0.0000     0.0000 </r>
       <r>   -12.1680     0.0000     0.0000 </r>
       <r>   -12.1171     0.0000     0.0000 </r>
       <r>   -12.0662     0.0000     0.0000 </r>
       <r>   -12.0152     0.0000     0.0000 </r>
       <r>   -11.9643     0.0000     0.0000 </r>
       <r>   -11.9134     0.0000     0.0000 </r>
       <r>   -11.8624     0.0000     0.0000 </r>
       <r>   -11.8115     0.0000     0.0000 </r>
       <r>   -11.7606     0.0000     0.0000 </r>
       <r>   -11.7097     0.0000     0.0000 </r>
       <r>   -11.6587     0.0000     0.0000 </r>
       <r>   -11.6078     0.0000     0.0000 </r>
       <r>   -11.5569     0.0000     0.0000 </r>
       <r>   -11.5060     0.0000     0.0000 </r>
       <r>   -11.4550     0.0000     0.0000 </r>
       <r>   -11.4041     0.0000     0.0000 </r>
       <r>   -11.3532     0.0000     0.0000 </r>
       <r>   -11.3023     0.0002     0.0000 </r>
       <r>   -11.2513     0.0008     0.0000 </r>
       <r>   -11.2004     0.0033     0.0002 </r>
       <r>   -11.1495     0.0123     0.0008 </r>
       <r>   -11.0985     0.0403     0.0029 </r>
       <r>   -11.0476     0.1165     0.0088 </r>
       <r>   -10.9967     0.2962     0.0239 </r>
       <r>   -10.9458     0.6623     0.0576 </r>
       <r>   -10.8948     1.3024     0.1240 </r>
       <r>   -10.8439     2.2530     0.2387 </r>
       <r>   -10.7930     3.4281     0.4133 </r>
       <r>   -10.7421     4.5881     0.6469 </r>
       <r>   -10.6911     5.4012     0.9220 </r>
       <r>   -10.6402     5.5929     1.2068 </r>
       <r>   -10.5893     5.0941     1.4663 </r>
       <r>   -10.5383     4.0812     1.6741 </r>
       <r>   -10.4874     2.8760     1.8206 </r>
       <r>   -10.4365     1.7827     1.9114 </r>
       <r>   -10.3856     0.9719     1.9609 </r>
       <r>   -10.3346     0.4661     1.9846 </r>
       <r>   -10.2837     0.1966     1.9946 </r>
       <r>   -10.2328     0.0730     1.9983 </r>
       <r>   -10.1819     0.0239     1.9995 </r>
       <r>   -10.1309     0.0074     1.9999 </r>
       <r>   -10.0800     0.0044     2.0001 </r>
       <r>   -10.0291     0.0112     2.0007 </r>
       <r>    -9.9781     0.0386     2.0027 </r>
       <r>    -9.9272     0.1208     2.0088 </r>
       <r>    -9.8763     0.3331     2.0258 </r>
       <r>    -9.8254     0.8079     2.0669 </r>
       <r>    -9.7744     1.7232     2.1547 </r>
       <r>    -9.7235     3.2332     2.3194 </r>
       <r>    -9.6726     5.3356     2.5911 </r>
       <r>    -9.6217     7.7450     2.9855 </r>
       <r>    -9.5707     9.8887     3.4891 </r>
       <r>    -9.5198    11.1058     4.0547 </r>
       <r>    -9.4689    10.9710     4.6134 </r>
       <r>    -9.4179     9.5329     5.0989 </r>
       <r>    -9.3670     7.2861     5.4700 </r>
       <r>    -9.3161     4.8983     5.7194 </r>
       <r>    -9.2652     2.8965     5.8669 </r>
       <r>    -9.2142     1.5066     5.9437 </r>
       <r>    -9.1633     0.6892     5.9788 </r>
       <r>    -9.1124     0.2773     5.9929 </r>
       <r>    -9.0615     0.0982     5.9979 </r>
       <r>    -9.0105     0.0306     5.9994 </r>
       <r>    -8.9596     0.0084     5.9999 </r>
       <r>    -8.9087     0.0020     6.0000 </r>
       <r>    -8.8578     0.0004     6.0000 </r>
       <r>    -8.8068     0.0001     6.0000 </r>
       <r>    -8.7559     0.0000     6.0000 </r>
       <r>    -8.7050     0.0000     6.0000 </r>
       <r>    -8.6540     0.0000     6.0000 </r>
       <r>    -8.6031     0.0000     6.0000 </r>
       <r>    -8.5522     0.0000     6.0000 </r>
       <r>    -8.5013     0.0000     6.0000 </r>
       <r>    -8.4503     0.0000     6.0000 </r>
       <r>    -8.3994     0.0000     6.0000 </r>
       <r>    -8.3485     0.0000     6.0000 </r>
       <r>    -8.2976     0.0000     6.0000 </r>
       <r>    -8.2466     0.0000     6.0000 </r>
       <r>    -8.1957     0.0000     6.0000 </r>
       <r>    -8.1448     0.0000     6.0000 </r>
       <r>    -8.0938     0.0000     6.0000 </r>
       <r>    -8.0429     0.0000     6.0000 </r>
       <r>    -7.9920     0.0000     6.0000 </r>
       <r>    -7.9411     0.0000     6.0000 </r>
       <r>    -7.8901     0.0000     6.0000 </r>
       <r>    -7.8392     0.0000     6.0000 </r>
       <r>    -7.7883     0.0000     6.0000 </r>
       <r>    -7.7374     0.0000     6.0000 </r>
       <r>    -7.6864     0.0000     6.0000 </r>
       <r>    -7.6355     0.0000     6.0000 </r>
       <r>    -7.5846     0.0000     6.0000 </r>
       <r>    -7.5336     0.0000     6.0000 </r>
       <r>    -7.4827     0.0000     6.0000 </r>
       <r>    -7.4318     0.0000     6.0000 </r>
       <r>    -7.3809     0.0000     6.0000 </r>
       <r>    -7.3299     0.0000     6.0000 </r>
       <r>    -7.2790     0.0000     6.0000 </r>
       <r>    -7.2281     0.0000     6.0000 </r>
       <r>    -7.1772     0.0000     6.0000 </r>
       <r>    -7.1262     0.0000     6.0000 </r>
       <r>    -7.0753     0.0000     6.0000 </r>
       <r>    -7.0244     0.0000     6.0000 </r>
       <r>    -6.9734     0.0000     6.0000 </r>
       <r>    -6.9225     0.0000     6.0000 </r>
       <r>    -6.8716     0.0000     6.0000 </r>
       <r>    -6.8207     0.0000     6.0000 </r>
       <r>    -6.7697     0.0001     6.0000 </r>
       <r>    -6.7188     0.0003     6.0000 </r>
       <r>    -6.6679     0.0017     6.0001 </r>
       <r>    -6.6170     0.0070     6.0005 </r>
       <r>    -6.5660     0.0260     6.0018 </r>
       <r>    -6.5151     0.0849     6.0061 </r>
       <r>    -6.4642     0.2440     6.0185 </r>
       <r>    -6.4133     0.6166     6.0499 </r>
       <r>    -6.3623     1.3705     6.1197 </r>
       <r>    -6.3114     2.6794     6.2562 </r>
       <r>    -6.2605     4.6075     6.4908 </r>
       <r>    -6.2095     6.9691     6.8458 </r>
       <r>    -6.1586     9.2719     7.3179 </r>
       <r>    -6.1077    10.8505     7.8705 </r>
       <r>    -6.0568    11.1690     8.4393 </r>
       <r>    -6.0058    10.1127     8.9543 </r>
       <r>    -5.9549     8.0540     9.3645 </r>
       <r>    -5.9040     5.6420     9.6518 </r>
       <r>    -5.8531     3.4765     9.8289 </r>
       <r>    -5.8021     1.8842     9.9248 </r>
       <r>    -5.7512     0.8982     9.9706 </r>
       <r>    -5.7003     0.3766     9.9898 </r>
       <r>    -5.6493     0.1389     9.9968 </r>
       <r>    -5.5984     0.0451     9.9991 </r>
       <r>    -5.5475     0.0129     9.9998 </r>
       <r>    -5.4966     0.0032    10.0000 </r>
       <r>    -5.4456     0.0007    10.0000 </r>
       <r>    -5.3947     0.0001    10.0000 </r>
       <r>    -5.3438     0.0000    10.0000 </r>
       <r>    -5.2929     0.0000    10.0000 </r>
       <r>    -5.2419     0.0000    10.0000 </r>
       <r>    -5.1910     0.0000    10.0000 </r>
       <r>    -5.1401     0.0000    10.0000 </r>
       <r>    -5.0891     0.0000    10.0000 </r>
       <r>    -5.0382     0.0000    10.0000 </r>
       <r>    -4.9873     0.0000    10.0000 </r>
       <r>    -4.9364     0.0000    10.0000 </r>
       <r>    -4.8854     0.0000    10.0000 </r>
       <r>    -4.8345     0.0000    10.0000 </r>
       <r>    -4.7836     0.0000    10.0000 </r>
       <r>    -4.7327     0.0000    10.0000 </r>
       <r>    -4.6817     0.0000    10.0000 </r>
       <r>    -4.6308     0.0000    10.0000 </r>
       <r>    -4.5799     0.0000    10.0000 </r>
       <r>    -4.5289     0.0000    10.0000 </r>
       <r>    -4.4780     0.0000    10.0000 </r>
       <r>    -4.4271     0.0000    10.0000 </r>
       <r>    -4.3762     0.0000    10.0000 </r>
       <r>    -4.3252     0.0000    10.0000 </r>
       <r>    -4.2743     0.0000    10.0000 </r>
       <r>    -4.2234     0.0000    10.0000 </r>
       <r>    -4.1725     0.0000    10.0000 </r>
       <r>    -4.1215     0.0000    10.0000 </r>
       <r>    -4.0706     0.0000    10.0000 </r>
       <r>    -4.0197     0.0000    10.0000 </r>
       <r>    -3.9688     0.0000    10.0000 </r>
       <r>    -3.9178     0.0000    10.0000 </r>
       <r>    -3.8669     0.0000    10.0000 </r>
       <r>    -3.8160     0.0000    10.0000 </r>
       <r>    -3.7650     0.0000    10.0000 </r>
       <r>    -3.7141     0.0000    10.0000 </r>
       <r>    -3.6632     0.0000    10.0000 </r>
       <r>    -3.6123     0.0000    10.0000 </r>
       <r>    -3.5613     0.0000    10.0000 </r>
       <r>    -3.5104     0.0000    10.0000 </r>
       <r>    -3.4595     0.0000    10.0000 </r>
       <r>    -3.4086     0.0000    10.0000 </r>
       <r>    -3.3576     0.0000    10.0000 </r>
       <r>    -3.3067     0.0000    10.0000 </r>
       <r>    -3.2558     0.0000    10.0000 </r>
       <r>    -3.2048     0.0000    10.0000 </r>
       <r>    -3.1539     0.0000    10.0000 </r>
       <r>    -3.1030     0.0000    10.0000 </r>
       <r>    -3.0521     0.0000    10.0000 </r>
       <r>    -3.0011     0.0000    10.0000 </r>
       <r>    -2.9502     0.0000    10.0000 </r>
       <r>    -2.8993     0.0000    10.0000 </r>
       <r>    -2.8484     0.0000    10.0000 </r>
       <r>    -2.7974     0.0000    10.0000 </r>
       <r>    -2.7465     0.0000    10.0000 </r>
       <r>    -2.6956     0.0000    10.0000 </r>
       <r>    -2.6446     0.0000    10.0000 </r>
       <r>    -2.5937     0.0000    10.0000 </r>
       <r>    -2.5428     0.0000    10.0000 </r>
       <r>    -2.4919     0.0000    10.0000 </r>
       <r>    -2.4409     0.0000    10.0000 </r>
       <r>    -2.3900     0.0000    10.0000 </r>
       <r>    -2.3391     0.0000    10.0000 </r>
       <r>    -2.2882     0.0000    10.0000 </r>
       <r>    -2.2372     0.0000    10.0000 </r>
       <r>    -2.1863     0.0000    10.0000 </r>
       <r>    -2.1354     0.0000    10.0000 </r>
       <r>    -2.0844     0.0000    10.0000 </r>
       <r>    -2.0335     0.0000    10.0000 </r>
       <r>    -1.9826     0.0000    10.0000 </r>
       <r>    -1.9317     0.0000    10.0000 </r>
       <r>    -1.8807     0.0000    10.0000 </r>
       <r>    -1.8298     0.0000    10.0000 </r>
       <r>    -1.7789     0.0000    10.0000 </r>
       <r>    -1.7280     0.0000    10.0000 </r>
       <r>    -1.6770     0.0000    10.0000 </r>
       <r>    -1.6261     0.0000    10.0000 </r>
       <r>    -1.5752     0.0000    10.0000 </r>
       <r>    -1.5243     0.0000    10.0000 </r>
       <r>    -1.4733     0.0000    10.0000 </r>
       <r>    -1.4224     0.0000    10.0000 </r>
       <r>    -1.3715     0.0000    10.0000 </r>
       <r>    -1.3205     0.0000    10.0000 </r>
       <r>    -1.2696     0.0001    10.0000 </r>
       <r>    -1.2187     0.0007    10.0000 </r>
       <r>    -1.1678     0.0034    10.0002 </r>
       <r>    -1.1168     0.0134    10.0009 </r>
       <r>    -1.0659     0.0468    10.0033 </r>
       <r>    -1.0150     0.1436    10.0106 </r>
       <r>    -0.9641     0.3877    10.0303 </r>
       <r>    -0.9131     0.9211    10.0772 </r>
       <r>    -0.8622     1.9244    10.1753 </r>
       <r>    -0.8113     3.5365    10.3554 </r>
       <r>    -0.7603     5.7171    10.6465 </r>
       <r>    -0.7094     8.1314    11.0606 </r>
       <r>    -0.6585    10.1807    11.5791 </r>
       <r>    -0.6076    11.2395    12.1515 </r>
       <r>    -0.5566    11.0005    12.7117 </r>
       <r>    -0.5057     9.7045    13.2059 </r>
       <r>    -0.4548     8.0879    13.6178 </r>
       <r>    -0.4039     7.0711    13.9779 </r>
       <r>    -0.3529     7.3595    14.3527 </r>
       <r>    -0.3020     9.1316    14.8178 </r>
       <r>    -0.2511    11.9198    15.4248 </r>
       <r>    -0.2001    14.7405    16.1755 </r>
       <r>    -0.1492    16.4764    17.0146 </r>
       <r>    -0.0983    16.3749    17.8485 </r>
       <r>    -0.0474    14.3950    18.5816 </r>
       <r>     0.0036    11.1763    19.1508 </r>
       <r>     0.0545     7.6627    19.5410 </r>
       <r>     0.1054     4.6477    19.7777 </r>
       <r>     0.1563     2.5236    19.9063 </r>
       <r>     0.2073     1.3171    19.9733 </r>
       <r>     0.2582     0.8902    20.0187 </r>
       <r>     0.3091     1.1343    20.0764 </r>
       <r>     0.3601     2.0433    20.1805 </r>
       <r>     0.4110     3.6434    20.3660 </r>
       <r>     0.4619     5.8314    20.6630 </r>
       <r>     0.5128     8.2364    21.0825 </r>
       <r>     0.5638    10.2378    21.6038 </r>
       <r>     0.6147    11.1946    22.1740 </r>
       <r>     0.6656    10.7674    22.7223 </r>
       <r>     0.7165     9.1098    23.1862 </r>
       <r>     0.7675     6.7795    23.5315 </r>
       <r>     0.8184     4.4379    23.7575 </r>
       <r>     0.8693     2.5553    23.8876 </r>
       <r>     0.9202     1.2942    23.9536 </r>
       <r>     0.9712     0.5765    23.9829 </r>
       <r>     1.0221     0.2259    23.9944 </r>
       <r>     1.0730     0.0779    23.9984 </r>
       <r>     1.1240     0.0236    23.9996 </r>
       <r>     1.1749     0.0063    23.9999 </r>
       <r>     1.2258     0.0015    24.0000 </r>
       <r>     1.2767     0.0003    24.0000 </r>
       <r>     1.3277     0.0001    24.0000 </r>
       <r>     1.3786     0.0000    24.0000 </r>
       <r>     1.4295     0.0000    24.0000 </r>
       <r>     1.4804     0.0000    24.0000 </r>
       <r>     1.5314     0.0000    24.0000 </r>
       <r>     1.5823     0.0000    24.0000 </r>
       <r>     1.6332     0.0000    24.0000 </r>
       <r>     1.6842     0.0000    24.0000 </r>
       <r>     1.7351     0.0000    24.0000 </r>
       <r>     1.7860     0.0000    24.0000 </r>
       <r>     1.8369     0.0000    24.0000 </r>
       <r>     1.8879     0.0000    24.0000 </r>
       <r>     1.9388     0.0000    24.0000 </r>
       <r>     1.9897     0.0000    24.0000 </r>
       <r>     2.0406     0.0000    24.0000 </r>
       <r>     2.0916     0.0000    24.0000 </r>
       <r>     2.1425     0.0000    24.0000 </r>
       <r>     2.1934     0.0000    24.0000 </r>
       <r>     2.2444     0.0000    24.0000 </r>
       <r>     2.2953     0.0000    24.0000 </r>
       <r>     2.3462     0.0000    24.0000 </r>
       <r>     2.3971     0.0000    24.0000 </r>
       <r>     2.4481     0.0000    24.0000 </r>
       <r>     2.4990     0.0000    24.0000 </r>
       <r>     2.5499     0.0000    24.0000 </r>
       <r>     2.6008     0.0000    24.0000 </r>
      </set>
     </set>
    </array>
   </total>
  </dos>
 </calculation>
 <structure name="finalpos" >
  <crystal>
   <varray name="basis" >
    <v>      15.00000000       0.00000000       0.00000000 </v>
    <v>       0.00000000      15.00000000       0.00000000 </v>
    <v>       0.00000000       0.00000000      11.20000000 </v>
   </varray>
   <i name="volume">   2520.00000000 </i>
   <varray name="rec_basis" >
    <v>       0.06666667      -0.00000000       0.00000000 </v>
    <v>       0.00000000       0.06666667       0.00000000 </v>
    <v>      -0.00000000      -0.00000000       0.08928571 </v>
   </varray>
  </crystal>
  <varray name="positions" >
   <v>       0.00000000       0.00000000       0.00000000 </v>
   <v>       0.00000000       0.00000000       0.12500000 </v>
   <v>       0.00000000       0.00000000       0.25000000 </v>
   <v>       0.00000000       0.00000000       0.37500000 </v>
   <v>       0.00000000       0.00000000       0.50000000 </v>
   <v>       0.00000000       0.00000000       0.62500000 </v>
   <v>       0.00000000       0.00000000       0.75000000 </v>
   <v>       0.00000000       0.00000000       0.87500000 </v>
  </varray>
 </structure>
</modeling>
