   8   8   0   0
  0.5400000E+03  0.1500000E-08  0.1500000E-08  0.1920000E-08  0.5000000E-15
  1.000000000000000E-004
  CAR 
 unknown system                          
      2.28260444     -9.91903865  301     -6.70458791      1.00000000
     -9.919  0.0000E+00  0.0000E+00  0.0000E+00  0.0000E+00
     -9.878  0.0000E+00  0.0000E+00  0.0000E+00  0.0000E+00
     -9.838  0.0000E+00  0.0000E+00  0.0000E+00  0.0000E+00
     -9.797  0.0000E+00  0.0000E+00  0.0000E+00  0.0000E+00
     -9.756  0.0000E+00  0.0000E+00  0.0000E+00  0.0000E+00
     -9.716  0.0000E+00  0.0000E+00  0.0000E+00  0.0000E+00
     -9.675  0.0000E+00  0.0000E+00  0.0000E+00  0.0000E+00
     -9.634  0.0000E+00  0.0000E+00  0.0000E+00  0.0000E+00
     -9.594  0.0000E+00  0.0000E+00  0.0000E+00  0.0000E+00
     -9.553  0.0000E+00  0.0000E+00  0.0000E+00  0.0000E+00
     -9.512  0.0000E+00  0.0000E+00  0.0000E+00  0.0000E+00
     -9.472  0.0000E+00  0.0000E+00  0.0000E+00  0.0000E+00
     -9.431  0.0000E+00  0.0000E+00  0.0000E+00  0.0000E+00
     -9.390  0.0000E+00  0.0000E+00  0.0000E+00  0.0000E+00
     -9.350  0.0000E+00  0.0000E+00  0.0000E+00  0.0000E+00
     -9.309  0.0000E+00  0.0000E+00  0.0000E+00  0.0000E+00
     -9.268  0.0000E+00  0.0000E+00  0.0000E+00  0.0000E+00
     -9.228  0.0000E+00  0.0000E+00  0.0000E+00  0.0000E+00
     -9.187  0.0000E+00  0.0000E+00  0.0000E+00  0.0000E+00
     -9.146  0.0000E+00  0.0000E+00  0.0000E+00  0.0000E+00
     -9.106  0.0000E+00  0.0000E+00  0.0000E+00  0.0000E+00
     -9.065  0.1365E-13  0.1365E-13  0.5551E-15  0.5551E-15
     -9.024  0.1201E-12  0.1201E-12  0.5440E-14  0.5440E-14
     -8.984  0.1138E-11  0.1138E-11  0.5174E-13  0.5174E-13
     -8.943  0.9772E-11  0.9772E-11  0.4492E-12  0.4492E-12
     -8.902  0.7735E-10  0.7734E-10  0.3595E-11  0.3595E-11
     -8.862  0.5639E-09  0.5638E-09  0.2653E-10  0.2653E-10
     -8.821  0.3786E-08  0.3786E-08  0.1805E-09  0.1805E-09
     -8.780  0.2342E-07  0.2341E-07  0.1133E-08  0.1133E-08
     -8.740  0.1334E-06  0.1334E-06  0.6558E-08  0.6557E-08
     -8.699  0.6999E-06  0.6998E-06  0.3502E-07  0.3502E-07
     -8.658  0.3382E-05  0.3382E-05  0.1726E-06  0.1726E-06
     -8.618  0.1506E-04  0.1505E-04  0.7849E-06  0.7849E-06
     -8.577  0.6173E-04  0.6172E-04  0.3296E-05  0.3295E-05
     -8.536  0.2331E-03  0.2331E-03  0.1278E-04  0.1278E-04
     -8.496  0.8109E-03  0.8109E-03  0.4576E-04  0.4576E-04
     -8.455  0.2598E-02  0.2598E-02  0.1514E-03  0.1514E-03
     -8.414  0.7669E-02  0.7669E-02  0.4634E-03  0.4633E-03
     -8.373  0.2085E-01  0.2085E-01  0.1311E-02  0.1311E-02
     -8.333  0.5221E-01  0.5221E-01  0.3435E-02  0.3435E-02
     -8.292  0.1205E+00  0.1204E+00  0.8334E-02  0.8334E-02
     -8.251  0.2560E+00  0.2560E+00  0.1875E-01  0.1874E-01
     -8.211  0.5013E+00  0.5012E+00  0.3913E-01  0.3913E-01
     -8.170  0.9046E+00  0.9045E+00  0.7592E-01  0.7592E-01
     -8.129  0.1505E+01  0.1505E+01  0.1371E+00  0.1371E+00
     -8.089  0.2311E+01  0.2311E+01  0.2311E+00  0.2311E+00
     -8.048  0.3279E+01  0.3279E+01  0.3645E+00  0.3645E+00
     -8.007  0.4313E+01  0.4313E+01  0.5399E+00  0.5399E+00
     -7.967  0.5287E+01  0.5287E+01  0.7549E+00  0.7549E+00
     -7.926  0.6096E+01  0.6096E+01  0.1003E+01  0.1003E+01
     -7.885  0.6712E+01  0.6712E+01  0.1276E+01  0.1276E+01
     -7.845  0.7210E+01  0.7210E+01  0.1569E+01  0.1569E+01
     -7.804  0.7743E+01  0.7743E+01  0.1884E+01  0.1884E+01
     -7.763  0.8458E+01  0.8458E+01  0.2228E+01  0.2228E+01
     -7.723  0.9399E+01  0.9399E+01  0.2610E+01  0.2610E+01
     -7.682  0.1045E+02  0.1045E+02  0.3035E+01  0.3035E+01
     -7.641  0.1133E+02  0.1133E+02  0.3496E+01  0.3496E+01
     -7.601  0.1175E+02  0.1175E+02  0.3974E+01  0.3974E+01
     -7.560  0.1146E+02  0.1146E+02  0.4440E+01  0.4440E+01
     -7.519  0.1041E+02  0.1041E+02  0.4864E+01  0.4864E+01
     -7.479  0.8776E+01  0.8776E+01  0.5221E+01  0.5221E+01
     -7.438  0.6835E+01  0.6835E+01  0.5499E+01  0.5499E+01
     -7.397  0.4912E+01  0.4912E+01  0.5698E+01  0.5698E+01
     -7.357  0.3255E+01  0.3255E+01  0.5831E+01  0.5831E+01
     -7.316  0.1988E+01  0.1988E+01  0.5912E+01  0.5912E+01
     -7.275  0.1120E+01  0.1120E+01  0.5957E+01  0.5957E+01
     -7.235  0.5859E+00  0.5859E+00  0.5981E+01  0.5981E+01
     -7.194  0.2946E+00  0.2946E+00  0.5993E+01  0.5993E+01
     -7.153  0.1695E+00  0.1695E+00  0.6000E+01  0.6000E+01
     -7.113  0.1673E+00  0.1673E+00  0.6007E+01  0.6007E+01
     -7.072  0.2875E+00  0.2875E+00  0.6018E+01  0.6018E+01
     -7.031  0.5714E+00  0.5714E+00  0.6042E+01  0.6042E+01
     -6.991  0.1095E+01  0.1095E+01  0.6086E+01  0.6086E+01
     -6.950  0.1949E+01  0.1949E+01  0.6165E+01  0.6165E+01
     -6.909  0.3198E+01  0.3198E+01  0.6296E+01  0.6295E+01
     -6.869  0.4835E+01  0.4835E+01  0.6492E+01  0.6492E+01
     -6.828  0.6734E+01  0.6734E+01  0.6766E+01  0.6766E+01
     -6.787  0.8640E+01  0.8640E+01  0.7117E+01  0.7117E+01
     -6.747  0.1021E+02  0.1021E+02  0.7533E+01  0.7533E+01
     -6.706  0.1111E+02  0.1111E+02  0.7985E+01  0.7985E+01
     -6.665  0.1114E+02  0.1114E+02  0.8438E+01  0.8438E+01
     -6.625  0.1029E+02  0.1029E+02  0.8857E+01  0.8857E+01
     -6.584  0.8758E+01  0.8758E+01  0.9213E+01  0.9213E+01
     -6.543  0.6864E+01  0.6864E+01  0.9492E+01  0.9492E+01
     -6.503  0.4955E+01  0.4955E+01  0.9694E+01  0.9694E+01
     -6.462  0.3295E+01  0.3295E+01  0.9828E+01  0.9828E+01
     -6.421  0.2018E+01  0.2018E+01  0.9910E+01  0.9910E+01
     -6.381  0.1139E+01  0.1139E+01  0.9956E+01  0.9956E+01
     -6.340  0.5919E+00  0.5919E+00  0.9980E+01  0.9980E+01
     -6.299  0.2834E+00  0.2834E+00  0.9992E+01  0.9992E+01
     -6.259  0.1250E+00  0.1250E+00  0.9997E+01  0.9997E+01
     -6.218  0.5077E-01  0.5077E-01  0.9999E+01  0.9999E+01
     -6.177  0.1905E-01  0.1905E-01  0.1000E+02  0.1000E+02
     -6.137  0.6792E-02  0.6792E-02  0.1000E+02  0.1000E+02
     -6.096  0.2971E-02  0.2971E-02  0.1000E+02  0.1000E+02
     -6.055  0.3588E-02  0.3587E-02  0.1000E+02  0.1000E+02
     -6.015  0.9318E-02  0.9317E-02  0.1000E+02  0.1000E+02
     -5.974  0.2594E-01  0.2594E-01  0.1000E+02  0.1000E+02
     -5.933  0.6751E-01  0.6751E-01  0.1000E+02  0.1000E+02
     -5.892  0.1620E+00  0.1620E+00  0.1001E+02  0.1001E+02
     -5.852  0.3583E+00  0.3583E+00  0.1003E+02  0.1003E+02
     -5.811  0.7298E+00  0.7298E+00  0.1006E+02  0.1006E+02
     -5.770  0.1369E+01  0.1369E+01  0.1011E+02  0.1011E+02
     -5.730  0.2366E+01  0.2366E+01  0.1021E+02  0.1021E+02
     -5.689  0.3767E+01  0.3767E+01  0.1036E+02  0.1036E+02
     -5.648  0.5524E+01  0.5524E+01  0.1059E+02  0.1059E+02
     -5.608  0.7462E+01  0.7462E+01  0.1089E+02  0.1089E+02
     -5.567  0.9284E+01  0.9284E+01  0.1127E+02  0.1127E+02
     -5.526  0.1064E+02  0.1064E+02  0.1170E+02  0.1170E+02
     -5.486  0.1123E+02  0.1123E+02  0.1216E+02  0.1216E+02
     -5.445  0.1092E+02  0.1092E+02  0.1260E+02  0.1260E+02
     -5.404  0.9786E+01  0.9786E+01  0.1300E+02  0.1300E+02
     -5.364  0.8076E+01  0.8076E+01  0.1333E+02  0.1333E+02
     -5.323  0.6143E+01  0.6143E+01  0.1358E+02  0.1358E+02
     -5.282  0.4314E+01  0.4314E+01  0.1375E+02  0.1375E+02
     -5.242  0.2815E+01  0.2815E+01  0.1387E+02  0.1387E+02
     -5.201  0.1749E+01  0.1749E+01  0.1394E+02  0.1394E+02
     -5.160  0.1122E+01  0.1122E+01  0.1398E+02  0.1398E+02
     -5.120  0.8949E+00  0.8949E+00  0.1402E+02  0.1402E+02
     -5.079  0.1019E+01  0.1019E+01  0.1406E+02  0.1406E+02
     -5.038  0.1454E+01  0.1454E+01  0.1412E+02  0.1412E+02
     -4.998  0.2156E+01  0.2156E+01  0.1421E+02  0.1421E+02
     -4.957  0.3050E+01  0.3050E+01  0.1433E+02  0.1433E+02
     -4.916  0.4011E+01  0.4011E+01  0.1449E+02  0.1449E+02
     -4.876  0.4870E+01  0.4870E+01  0.1469E+02  0.1469E+02
     -4.835  0.5450E+01  0.5450E+01  0.1491E+02  0.1491E+02
     -4.794  0.5619E+01  0.5619E+01  0.1514E+02  0.1514E+02
     -4.754  0.5337E+01  0.5337E+01  0.1536E+02  0.1536E+02
     -4.713  0.4669E+01  0.4669E+01  0.1555E+02  0.1555E+02
     -4.672  0.3763E+01  0.3763E+01  0.1570E+02  0.1570E+02
     -4.632  0.2793E+01  0.2793E+01  0.1582E+02  0.1582E+02
     -4.591  0.1910E+01  0.1910E+01  0.1589E+02  0.1589E+02
     -4.550  0.1203E+01  0.1203E+01  0.1594E+02  0.1594E+02
     -4.510  0.6979E+00  0.6979E+00  0.1597E+02  0.1597E+02
     -4.469  0.3730E+00  0.3730E+00  0.1599E+02  0.1599E+02
     -4.428  0.1836E+00  0.1836E+00  0.1599E+02  0.1599E+02
     -4.388  0.8326E-01  0.8326E-01  0.1600E+02  0.1600E+02
     -4.347  0.3478E-01  0.3478E-01  0.1600E+02  0.1600E+02
     -4.306  0.1338E-01  0.1338E-01  0.1600E+02  0.1600E+02
     -4.266  0.4742E-02  0.4742E-02  0.1600E+02  0.1600E+02
     -4.225  0.1548E-02  0.1548E-02  0.1600E+02  0.1600E+02
     -4.184  0.4654E-03  0.4654E-03  0.1600E+02  0.1600E+02
     -4.144  0.1289E-03  0.1289E-03  0.1600E+02  0.1600E+02
     -4.103  0.3288E-04  0.3288E-04  0.1600E+02  0.1600E+02
     -4.062  0.7726E-05  0.7726E-05  0.1600E+02  0.1600E+02
     -4.022  0.1672E-05  0.1672E-05  0.1600E+02  0.1600E+02
     -3.981  0.3333E-06  0.3333E-06  0.1600E+02  0.1600E+02
     -3.940  0.6120E-07  0.6121E-07  0.1600E+02  0.1600E+02
     -3.900  0.1035E-07  0.1035E-07  0.1600E+02  0.1600E+02
     -3.859  0.1612E-08  0.1612E-08  0.1600E+02  0.1600E+02
     -3.818  0.2313E-09  0.2314E-09  0.1600E+02  0.1600E+02
     -3.778  0.3057E-10  0.3057E-10  0.1600E+02  0.1600E+02
     -3.737  0.3718E-11  0.3718E-11  0.1600E+02  0.1600E+02
     -3.696  0.4204E-12  0.4204E-12  0.1600E+02  0.1600E+02
     -3.656  0.3822E-13  0.3822E-13  0.1600E+02  0.1600E+02
     -3.615  0.5459E-14  0.5459E-14  0.1600E+02  0.1600E+02
     -3.574  0.0000E+00  0.0000E+00  0.1600E+02  0.1600E+02
     -3.534  0.0000E+00  0.0000E+00  0.1600E+02  0.1600E+02
     -3.493  0.0000E+00  0.0000E+00  0.1600E+02  0.1600E+02
     -3.452  0.0000E+00  0.0000E+00  0.1600E+02  0.1600E+02
     -3.411  0.0000E+00  0.0000E+00  0.1600E+02  0.1600E+02
     -3.371  0.0000E+00  0.0000E+00  0.1600E+02  0.1600E+02
     -3.330  0.0000E+00  0.0000E+00  0.1600E+02  0.1600E+02
     -3.289  0.0000E+00  0.0000E+00  0.1600E+02  0.1600E+02
     -3.249  0.0000E+00  0.0000E+00  0.1600E+02  0.1600E+02
     -3.208  0.0000E+00  0.0000E+00  0.1600E+02  0.1600E+02
     -3.167  0.0000E+00  0.0000E+00  0.1600E+02  0.1600E+02
     -3.127  0.0000E+00  0.0000E+00  0.1600E+02  0.1600E+02
     -3.086  0.0000E+00  0.0000E+00  0.1600E+02  0.1600E+02
     -3.045  0.0000E+00  0.0000E+00  0.1600E+02  0.1600E+02
     -3.005  0.0000E+00  0.0000E+00  0.1600E+02  0.1600E+02
     -2.964  0.0000E+00  0.0000E+00  0.1600E+02  0.1600E+02
     -2.923  0.0000E+00  0.0000E+00  0.1600E+02  0.1600E+02
     -2.883  0.0000E+00  0.0000E+00  0.1600E+02  0.1600E+02
     -2.842  0.0000E+00  0.0000E+00  0.1600E+02  0.1600E+02
     -2.801  0.0000E+00  0.0000E+00  0.1600E+02  0.1600E+02
     -2.761  0.0000E+00  0.0000E+00  0.1600E+02  0.1600E+02
     -2.720  0.0000E+00  0.0000E+00  0.1600E+02  0.1600E+02
     -2.679  0.0000E+00  0.0000E+00  0.1600E+02  0.1600E+02
     -2.639  0.0000E+00  0.0000E+00  0.1600E+02  0.1600E+02
     -2.598  0.0000E+00  0.0000E+00  0.1600E+02  0.1600E+02
     -2.557  0.0000E+00  0.0000E+00  0.1600E+02  0.1600E+02
     -2.517  0.0000E+00  0.0000E+00  0.1600E+02  0.1600E+02
     -2.476  0.0000E+00  0.0000E+00  0.1600E+02  0.1600E+02
     -2.435  0.0000E+00  0.0000E+00  0.1600E+02  0.1600E+02
     -2.395  0.0000E+00  0.0000E+00  0.1600E+02  0.1600E+02
     -2.354  0.0000E+00  0.0000E+00  0.1600E+02  0.1600E+02
     -2.313  0.0000E+00  0.0000E+00  0.1600E+02  0.1600E+02
     -2.273  0.0000E+00  0.0000E+00  0.1600E+02  0.1600E+02
     -2.232  0.0000E+00  0.0000E+00  0.1600E+02  0.1600E+02
     -2.191  0.0000E+00  0.0000E+00  0.1600E+02  0.1600E+02
     -2.151  0.0000E+00  0.0000E+00  0.1600E+02  0.1600E+02
     -2.110  0.0000E+00  0.0000E+00  0.1600E+02  0.1600E+02
     -2.069  0.0000E+00  0.0000E+00  0.1600E+02  0.1600E+02
     -2.029  0.0000E+00  0.0000E+00  0.1600E+02  0.1600E+02
     -1.988  0.0000E+00  0.0000E+00  0.1600E+02  0.1600E+02
     -1.947  0.0000E+00  0.0000E+00  0.1600E+02  0.1600E+02
     -1.907  0.0000E+00  0.0000E+00  0.1600E+02  0.1600E+02
     -1.866  0.0000E+00  0.0000E+00  0.1600E+02  0.1600E+02
     -1.825  0.0000E+00  0.0000E+00  0.1600E+02  0.1600E+02
     -1.785  0.0000E+00  0.0000E+00  0.1600E+02  0.1600E+02
     -1.744  0.0000E+00  0.0000E+00  0.1600E+02  0.1600E+02
     -1.703  0.0000E+00  0.0000E+00  0.1600E+02  0.1600E+02
     -1.663  0.0000E+00  0.0000E+00  0.1600E+02  0.1600E+02
     -1.622  0.0000E+00  0.0000E+00  0.1600E+02  0.1600E+02
     -1.581  0.0000E+00  0.0000E+00  0.1600E+02  0.1600E+02
     -1.541  0.0000E+00  0.0000E+00  0.1600E+02  0.1600E+02
     -1.500  0.0000E+00  0.0000E+00  0.1600E+02  0.1600E+02
     -1.459  0.0000E+00  0.0000E+00  0.1600E+02  0.1600E+02
     -1.419  0.0000E+00  0.0000E+00  0.1600E+02  0.1600E+02
     -1.378  0.0000E+00  0.0000E+00  0.1600E+02  0.1600E+02
     -1.337  0.0000E+00  0.0000E+00  0.1600E+02  0.1600E+02
     -1.297  0.2730E-14  0.2730E-14  0.1600E+02  0.1600E+02
     -1.256  0.2457E-13  0.2730E-13  0.1600E+02  0.1600E+02
     -1.215  0.2757E-12  0.2812E-12  0.1600E+02  0.1600E+02
     -1.175  0.2522E-11  0.2612E-11  0.1600E+02  0.1600E+02
     -1.134  0.2167E-10  0.2235E-10  0.1600E+02  0.1600E+02
     -1.093  0.1713E-09  0.1763E-09  0.1600E+02  0.1600E+02
     -1.053  0.1248E-08  0.1282E-08  0.1600E+02  0.1600E+02
     -1.012  0.8382E-08  0.8600E-08  0.1600E+02  0.1600E+02
     -0.971  0.5191E-07  0.5317E-07  0.1600E+02  0.1600E+02
     -0.930  0.2964E-06  0.3031E-06  0.1600E+02  0.1600E+02
     -0.890  0.1560E-05  0.1593E-05  0.1600E+02  0.1600E+02
     -0.849  0.7573E-05  0.7721E-05  0.1600E+02  0.1600E+02
     -0.808  0.3389E-04  0.3451E-04  0.1600E+02  0.1600E+02
     -0.768  0.1399E-03  0.1422E-03  0.1600E+02  0.1600E+02
     -0.727  0.5322E-03  0.5403E-03  0.1600E+02  0.1600E+02
     -0.686  0.1867E-02  0.1893E-02  0.1600E+02  0.1600E+02
     -0.646  0.6041E-02  0.6117E-02  0.1600E+02  0.1600E+02
     -0.605  0.1802E-01  0.1823E-01  0.1600E+02  0.1600E+02
     -0.564  0.4959E-01  0.5009E-01  0.1600E+02  0.1600E+02
     -0.524  0.1258E+00  0.1269E+00  0.1601E+02  0.1601E+02
     -0.483  0.2943E+00  0.2966E+00  0.1602E+02  0.1602E+02
     -0.442  0.6351E+00  0.6393E+00  0.1605E+02  0.1605E+02
     -0.402  0.1263E+01  0.1271E+01  0.1610E+02  0.1610E+02
     -0.361  0.2318E+01  0.2329E+01  0.1619E+02  0.1619E+02
     -0.320  0.3922E+01  0.3938E+01  0.1635E+02  0.1635E+02
     -0.280  0.6120E+01  0.6139E+01  0.1660E+02  0.1660E+02
     -0.239  0.8807E+01  0.8828E+01  0.1696E+02  0.1696E+02
     -0.198  0.1169E+02  0.1171E+02  0.1743E+02  0.1744E+02
     -0.158  0.1432E+02  0.1433E+02  0.1802E+02  0.1802E+02
     -0.117  0.1619E+02  0.1619E+02  0.1867E+02  0.1868E+02
     -0.076  0.1692E+02  0.1692E+02  0.1936E+02  0.1937E+02
     -0.036  0.1641E+02  0.1640E+02  0.2003E+02  0.2003E+02
      0.005  0.1484E+02  0.1483E+02  0.2063E+02  0.2064E+02
      0.046  0.1268E+02  0.1267E+02  0.2115E+02  0.2115E+02
      0.086  0.1047E+02  0.1047E+02  0.2158E+02  0.2158E+02
      0.127  0.8647E+01  0.8650E+01  0.2193E+02  0.2193E+02
      0.168  0.7429E+01  0.7437E+01  0.2223E+02  0.2223E+02
      0.208  0.6776E+01  0.6786E+01  0.2250E+02  0.2251E+02
      0.249  0.6466E+01  0.6472E+01  0.2277E+02  0.2277E+02
      0.290  0.6216E+01  0.6217E+01  0.2302E+02  0.2302E+02
      0.330  0.5804E+01  0.5797E+01  0.2326E+02  0.2326E+02
      0.371  0.5133E+01  0.5119E+01  0.2347E+02  0.2347E+02
      0.412  0.4240E+01  0.4221E+01  0.2364E+02  0.2364E+02
      0.452  0.3247E+01  0.3228E+01  0.2377E+02  0.2377E+02
      0.493  0.2298E+01  0.2281E+01  0.2386E+02  0.2386E+02
      0.534  0.1501E+01  0.1487E+01  0.2392E+02  0.2393E+02
      0.574  0.9031E+00  0.8934E+00  0.2396E+02  0.2396E+02
      0.615  0.5008E+00  0.4946E+00  0.2398E+02  0.2398E+02
      0.656  0.2559E+00  0.2523E+00  0.2399E+02  0.2399E+02
      0.696  0.1204E+00  0.1186E+00  0.2400E+02  0.2400E+02
      0.737  0.5221E-01  0.5131E-01  0.2400E+02  0.2400E+02
      0.778  0.2085E-01  0.2046E-01  0.2400E+02  0.2400E+02
      0.818  0.7669E-02  0.7513E-02  0.2400E+02  0.2400E+02
      0.859  0.2598E-02  0.2542E-02  0.2400E+02  0.2400E+02
      0.900  0.8109E-03  0.7919E-03  0.2400E+02  0.2400E+02
      0.940  0.2331E-03  0.2273E-03  0.2400E+02  0.2400E+02
      0.981  0.6173E-04  0.6009E-04  0.2400E+02  0.2400E+02
      1.022  0.1506E-04  0.1463E-04  0.2400E+02  0.2400E+02
      1.062  0.3382E-05  0.3282E-05  0.2400E+02  0.2400E+02
      1.103  0.6999E-06  0.6780E-06  0.2400E+02  0.2400E+02
      1.144  0.1334E-06  0.1290E-06  0.2400E+02  0.2400E+02
      1.184  0.2342E-07  0.2261E-07  0.2400E+02  0.2400E+02
      1.225  0.3786E-08  0.3650E-08  0.2400E+02  0.2400E+02
      1.266  0.5639E-09  0.5427E-09  0.2400E+02  0.2400E+02
      1.306  0.7735E-10  0.7433E-10  0.2400E+02  0.2400E+02
      1.347  0.9772E-11  0.9374E-11  0.2400E+02  0.2400E+02
      1.388  0.1141E-11  0.1086E-11  0.2400E+02  0.2400E+02
      1.428  0.1201E-12  0.1201E-12  0.2400E+02  0.2400E+02
      1.469  0.1092E-13  0.1092E-13  0.2400E+02  0.2400E+02
      1.510  0.0000E+00  0.0000E+00  0.2400E+02  0.2400E+02
      1.551  0.0000E+00  0.0000E+00  0.2400E+02  0.2400E+02
      1.591  0.0000E+00  0.0000E+00  0.2400E+02  0.2400E+02
      1.632  0.0000E+00  0.0000E+00  0.2400E+02  0.2400E+02
      1.673  0.0000E+00  0.0000E+00  0.2400E+02  0.2400E+02
      1.713  0.0000E+00  0.0000E+00  0.2400E+02  0.2400E+02
      1.754  0.0000E+00  0.0000E+00  0.2400E+02  0.2400E+02
      1.795  0.0000E+00  0.0000E+00  0.2400E+02  0.2400E+02
      1.835  0.0000E+00  0.0000E+00  0.2400E+02  0.2400E+02
      1.876  0.0000E+00  0.0000E+00  0.2400E+02  0.2400E+02
      1.917  0.0000E+00  0.0000E+00  0.2400E+02  0.2400E+02
      1.957  0.0000E+00  0.0000E+00  0.2400E+02  0.2400E+02
      1.998  0.0000E+00  0.0000E+00  0.2400E+02  0.2400E+02
      2.039  0.0000E+00  0.0000E+00  0.2400E+02  0.2400E+02
      2.079  0.0000E+00  0.0000E+00  0.2400E+02  0.2400E+02
      2.120  0.0000E+00  0.0000E+00  0.2400E+02  0.2400E+02
      2.161  0.0000E+00  0.0000E+00  0.2400E+02  0.2400E+02
      2.201  0.0000E+00  0.0000E+00  0.2400E+02  0.2400E+02
      2.242  0.0000E+00  0.0000E+00  0.2400E+02  0.2400E+02
      2.283  0.0000E+00  0.0000E+00  0.2400E+02  0.2400E+02
