    8    8    1    2
  0.5400000E+03  0.1500000E-08  0.1500000E-08  0.1920000E-08  0.5000000E-15
  1.000000000000000E-004
  CAR 
 unknown system                          
      8      1     12
 
  0.0000000E+00  0.0000000E+00  0.0000000E+00  0.1000000E+01
    1       -7.919039     -7.919037   1.000000   1.000000
    2       -7.600592     -7.600590   1.000000   1.000000
    3       -7.600592     -7.600590   1.000000   1.000000
    4       -6.704594     -6.704592   0.500011   0.500011
    5       -6.704586     -6.704584   0.499989   0.499989
    6       -5.499602     -5.499600   0.000000   0.000000
    7       -5.499602     -5.499600   0.000000   0.000000
    8       -4.819864     -4.819863   0.000000   0.000000
    9       -0.119573     -0.120368   0.000000   0.000000
   10       -0.086287     -0.086316   0.000000   0.000000
   11       -0.086287     -0.086316   0.000000   0.000000
   12        0.282604      0.281806   0.000000   0.000000
