       N       E                     dE             d eps       ncg     rms          rms(c)
DAV:   1     0.175060574898E+02    0.17506E+02   -0.85481E+02    48   0.179E+02
DAV:   2    -0.442948399628E+01   -0.21936E+02   -0.21823E+02    96   0.519E+01
DAV:   3    -0.640848996662E+01   -0.19790E+01   -0.18322E+01    64   0.198E+01
DAV:   4    -0.653300538361E+01   -0.12452E+00   -0.11167E+00    48   0.403E+00
DAV:   5    -0.653460080099E+01   -0.15954E-02   -0.15932E-02    64   0.424E-01    0.135E+00
DAV:   6    -0.655134453599E+01   -0.16744E-01   -0.11762E-02    48   0.490E-01    0.808E-01
DAV:   7    -0.657964985741E+01   -0.28305E-01   -0.24737E-02    48   0.733E-01    0.674E-02
DAV:   8    -0.658092238018E+01   -0.12725E-02   -0.79469E-04    56   0.150E-01    0.221E-02
DAV:   9    -0.658101659860E+01   -0.94218E-04   -0.25474E-05    56   0.292E-02    0.245E-03
DAV:  10    -0.658102910856E+01   -0.12510E-04   -0.81302E-07    40   0.448E-03    0.140E-03
DAV:  11    -0.658104153632E+01   -0.12428E-04   -0.81284E-07    40   0.404E-03    0.537E-04
DAV:  12    -0.658104542726E+01   -0.38909E-05   -0.14538E-07    40   0.191E-03    0.256E-04
DAV:  13    -0.658105030638E+01   -0.48791E-05   -0.91740E-08    32   0.125E-03    0.215E-04
DAV:  14    -0.658105407207E+01   -0.37657E-05   -0.13530E-07    32   0.129E-03    0.119E-04
DAV:  15    -0.658105521686E+01   -0.11448E-05   -0.25528E-08    32   0.635E-04    0.110E-04
DAV:  16    -0.658105620059E+01   -0.98374E-06   -0.11909E-08    32   0.516E-04
   1 F= -.65810562E+01 E0= -.64682183E+01  d E =-.225676E+00  mag=    -0.0000
