<?xml version="1.0" encoding="ISO-8859-1"?>
<modeling>
 <generator>
  <i name="program" type="string">vasp </i>
  <i name="version" type="string">5.4.4.18Apr17-6-g9f103f2a35  </i>
  <i name="subversion" type="string">(build Aug 24 2024 05:40:03) complex            parallel </i>
  <i name="platform" type="string">IFC22_IMPI </i>
  <i name="date" type="string">2024 11 22 </i>
  <i name="time" type="string">21:45:59 </i>
 </generator>
 <incar>
  <i type="string" name="PREC">normal</i>
  <i type="int" name="ISPIN">     2</i>
  <i type="int" name="ICHARG">     2</i>
  <i type="int" name="NELM">   100</i>
  <i name="EDIFF">      0.00000100</i>
  <i type="int" name="NSW">     0</i>
  <i name="ENCUT">    300.00000000</i>
  <i name="NUPDOWN">      0.00000000</i>
  <i type="int" name="ISMEAR">     0</i>
  <i name="SIGMA">      0.20000000</i>
  <i type="logical" name="LWAVE"> F  </i>
  <i type="logical" name="LCHARG"> F  </i>
  <v type="int" name="KPOINT_BSE">    -1     0     0     0</v>
  <i type="int" name="NELM">   100</i>
 </incar>
 <structure name="primitive_cell" >
  <crystal>
   <varray name="basis" >
    <v>      15.00000000       0.00000000       0.00000000 </v>
    <v>       0.00000000      15.00000000       0.00000000 </v>
    <v>       0.00000000       0.00000000       2.40000000 </v>
   </varray>
   <i name="volume">    540.00000000 </i>
   <varray name="rec_basis" >
    <v>       0.06666667      -0.00000000       0.00000000 </v>
    <v>       0.00000000       0.06666667       0.00000000 </v>
    <v>      -0.00000000      -0.00000000       0.41666667 </v>
   </varray>
  </crystal>
  <varray name="positions" >
   <v>       0.00000000       0.00000000       0.00000000 </v>
  </varray>
 </structure>
 <varray name="primitive_index" >
  <v type="int" >        1 </v>
 </varray>
 <kpoints>
  <generation param="Gamma">
   <v type="int" name="divisions">       1        1        1 </v>
   <v name="usershift">      0.00000000       0.00000000       0.00000000 </v>
   <v name="genvec1">      1.00000000      -0.00000000       0.00000000 </v>
   <v name="genvec2">      0.00000000       1.00000000       0.00000000 </v>
   <v name="genvec3">      0.00000000       0.00000000       1.00000000 </v>
   <v name="shift">      0.00000000       0.00000000       0.00000000 </v>
  </generation>
  <varray name="kpointlist" >
   <v>       0.00000000       0.00000000       0.00000000 </v>
  </varray>
  <varray name="weights" >
   <v>       1.00000000 </v>
  </varray>
 </kpoints>
 <parameters>
  <separator name="general" >
   <i type="string" name="SYSTEM">unknown system</i>
   <i type="logical" name="LCOMPAT"> F  </i>
  </separator>
  <separator name="electronic" >
   <i type="string" name="PREC">normal</i>
   <i name="ENMAX">    300.00000000</i>
   <i name="ENAUG">    400.00000000</i>
   <i name="EDIFF">      0.00000100</i>
   <i type="int" name="IALGO">    38</i>
   <i type="int" name="IWAVPR">    10</i>
   <i type="int" name="NBANDS">    12</i>
   <i name="NELECT">      8.00000000</i>
   <i type="int" name="TURBO">     0</i>
   <i type="int" name="IRESTART">     0</i>
   <i type="int" name="NREBOOT">     0</i>
   <i type="int" name="NMIN">     0</i>
   <i name="EREF">      0.00000000</i>
   <separator name="electronic smearing" >
    <i type="int" name="ISMEAR">     0</i>
    <i name="SIGMA">      0.20000000</i>
    <i name="KSPACING">      0.50000000</i>
    <i type="logical" name="KGAMMA"> T  </i>
   </separator>
   <separator name="electronic projectors" >
    <i type="logical" name="LREAL"> F  </i>
    <v name="ROPT">      0.00000000</v>
    <i type="int" name="LMAXPAW">  -100</i>
    <i type="int" name="LMAXMIX">     2</i>
    <i type="logical" name="NLSPLINE"> F  </i>
   </separator>
   <separator name="electronic startup" >
    <i type="int" name="ISTART">     0</i>
    <i type="int" name="ICHARG">     2</i>
    <i type="int" name="INIWAV">     1</i>
   </separator>
   <separator name="electronic spin" >
    <i type="int" name="ISPIN">     2</i>
    <i type="logical" name="LNONCOLLINEAR"> F  </i>
    <v name="MAGMOM">      0.00000000      0.00000000      0.00000000      0.00000000      0.00000000      0.00000000      0.00000000      0.00000000</v>
    <i name="NUPDOWN">      0.00000000</i>
    <i type="logical" name="LSORBIT"> F  </i>
    <v name="SAXIS">      0.00000000      0.00000000      1.00000000</v>
    <i type="logical" name="LSPIRAL"> F  </i>
    <v name="QSPIRAL">      0.00000000      0.00000000      0.00000000</v>
    <i type="logical" name="LZEROZ"> F  </i>
   </separator>
   <separator name="electronic exchange-correlation" >
    <i type="logical" name="LASPH"> F  </i>
    <i type="logical" name="LMETAGGA"> F  </i>
   </separator>
   <separator name="electronic convergence" >
    <i type="int" name="NELM">   100</i>
    <i type="int" name="NELMDL">    -5</i>
    <i type="int" name="NELMIN">     2</i>
    <i name="ENINI">    300.00000000</i>
    <separator name="electronic convergence detail" >
     <i type="logical" name="LDIAG"> T  </i>
     <i type="logical" name="LSUBROT"> F  </i>
     <i name="WEIMIN">      0.00000000</i>
     <i name="EBREAK">      0.00000002</i>
     <i name="DEPER">      0.30000000</i>
     <i type="int" name="NRMM">     4</i>
     <i name="TIME">      0.40000000</i>
    </separator>
   </separator>
   <separator name="electronic mixer" >
    <i name="AMIX">      0.40000000</i>
    <i name="BMIX">      1.00000000</i>
    <i name="AMIN">      0.10000000</i>
    <i name="AMIX_MAG">      1.60000000</i>
    <i name="BMIX_MAG">      1.00000000</i>
    <separator name="electronic mixer details" >
     <i type="int" name="IMIX">     4</i>
     <i type="logical" name="MIXFIRST"> F  </i>
     <i type="int" name="MAXMIX">   -45</i>
     <i name="WC">    100.00000000</i>
     <i type="int" name="INIMIX">     1</i>
     <i type="int" name="MIXPRE">     1</i>
     <i type="int" name="MREMOVE">     5</i>
    </separator>
   </separator>
   <separator name="electronic dipolcorrection" >
    <i type="logical" name="LDIPOL"> F  </i>
    <i type="logical" name="LMONO"> F  </i>
    <i type="int" name="IDIPOL">     0</i>
    <i name="EPSILON">      1.00000000</i>
    <v name="DIPOL">   -100.00000000   -100.00000000   -100.00000000</v>
    <i name="EFIELD">      0.00000000</i>
   </separator>
  </separator>
  <separator name="grids" >
   <i type="int" name="NGX">    64</i>
   <i type="int" name="NGY">    64</i>
   <i type="int" name="NGZ">    84</i>
   <i type="int" name="NGXF">   128</i>
   <i type="int" name="NGYF">   128</i>
   <i type="int" name="NGZF">   168</i>
   <i type="logical" name="ADDGRID"> F  </i>
  </separator>
  <separator name="ionic" >
   <i type="int" name="NSW">     0</i>
   <i type="int" name="IBRION">    -1</i>
   <i type="int" name="MDALGO">     0</i>
   <i type="int" name="ISIF">     2</i>
   <i name="PSTRESS">      0.00000000</i>
   <i name="EDIFFG">      0.00001000</i>
   <i type="int" name="NFREE">     0</i>
   <i name="POTIM">      0.50000000</i>
   <i name="SMASS">     -3.00000000</i>
   <i name="SCALEE">      1.00000000</i>
  </separator>
  <separator name="ionic md" >
   <i name="TEBEG">      0.00010000</i>
   <i name="TEEND">      0.00010000</i>
   <i type="int" name="NBLOCK">     1</i>
   <i type="int" name="KBLOCK">     1</i>
   <i type="int" name="NPACO">   256</i>
   <i name="APACO">     16.00000000</i>
  </separator>
  <separator name="symmetry" >
   <i type="int" name="ISYM">     2</i>
   <i name="SYMPREC">      0.00001000</i>
  </separator>
  <separator name="dos" >
   <i type="int" name="LORBIT">     0</i>
   <v name="RWIGS">     -1.00000000</v>
   <i type="int" name="NEDOS">   301</i>
   <i name="EMIN">     10.00000000</i>
   <i name="EMAX">    -10.00000000</i>
   <i name="EFERMI">      0.00000000</i>
  </separator>
  <separator name="writing" >
   <i type="int" name="NWRITE">     2</i>
   <i type="logical" name="LWAVE"> F  </i>
   <i type="logical" name="LDOWNSAMPLE"> F  </i>
   <i type="logical" name="LCHARG"> F  </i>
   <i type="logical" name="LPARD"> F  </i>
   <i type="logical" name="LVTOT"> F  </i>
   <i type="logical" name="LVHAR"> F  </i>
   <i type="logical" name="LELF"> F  </i>
   <i type="logical" name="LOPTICS"> F  </i>
   <v name="STM">      0.00000000      0.00000000      0.00000000      0.00000000      0.00000000      0.00000000      0.00000000</v>
  </separator>
  <separator name="performance" >
   <i type="int" name="NPAR">     4</i>
   <i type="int" name="NSIM">     4</i>
   <i type="int" name="NBLK">    -1</i>
   <i type="logical" name="LPLANE"> T  </i>
   <i type="logical" name="LSCALAPACK"> T  </i>
   <i type="logical" name="LSCAAWARE"> F  </i>
   <i type="logical" name="LSCALU"> F  </i>
   <i type="logical" name="LASYNC"> F  </i>
   <i type="logical" name="LORBITALREAL"> F  </i>
  </separator>
  <separator name="miscellaneous" >
   <i type="int" name="IDIOT">     3</i>
   <i type="int" name="ISPECIAL">     0</i>
   <i type="logical" name="LMUSIC"> F  </i>
   <v name="POMASS">      1.00000000</v>
   <v name="DARWINR">      0.00000000</v>
   <v name="DARWINV">      1.00000000</v>
   <i type="logical" name="LCORR"> T  </i>
  </separator>
  <i type="logical" name="GGA_COMPAT"> T  </i>
  <i type="logical" name="LBERRY"> F  </i>
  <i type="int" name="ICORELEVEL">     0</i>
  <i type="logical" name="LDAU"> F  </i>
  <i type="int" name="I_CONSTRAINED_M">     0</i>
  <separator name="electronic exchange-correlation" >
   <i type="string" name="GGA">--</i>
   <i type="int" name="VOSKOWN">     0</i>
   <i type="logical" name="LHFCALC"> F  </i>
   <i type="string" name="PRECFOCK"></i>
   <i type="logical" name="LSYMGRAD"> F  </i>
   <i type="logical" name="LHFONE"> F  </i>
   <i type="logical" name="LRHFCALC"> F  </i>
   <i type="logical" name="LTHOMAS"> F  </i>
   <i type="logical" name="LMODELHF"> F  </i>
   <i name="ENCUT4O">     -1.00000000</i>
   <i type="int" name="EXXOEP">     0</i>
   <i type="int" name="FOURORBIT">     0</i>
   <i name="AEXX">      0.00000000</i>
   <i name="HFALPHA">      0.00000000</i>
   <i name="MCALPHA">      0.00000000</i>
   <i name="ALDAX">      1.00000000</i>
   <i name="AGGAX">      1.00000000</i>
   <i name="ALDAC">      1.00000000</i>
   <i name="AGGAC">      1.00000000</i>
   <i type="int" name="NKREDX">     1</i>
   <i type="int" name="NKREDY">     1</i>
   <i type="int" name="NKREDZ">     1</i>
   <i type="logical" name="SHIFTRED"> F  </i>
   <i type="logical" name="ODDONLY"> F  </i>
   <i type="logical" name="EVENONLY"> F  </i>
   <i type="int" name="LMAXFOCK">     0</i>
   <i type="int" name="NMAXFOCKAE">     0</i>
   <i type="logical" name="LFOCKAEDFT"> F  </i>
   <i name="HFSCREEN">      0.00000000</i>
   <i name="HFSCREENC">      0.00000000</i>
   <i type="int" name="NBANDSGWLOW">     0</i>
  </separator>
  <separator name="vdW DFT" >
   <i type="logical" name="LUSE_VDW"> F  </i>
   <i name="Zab_VDW">     -0.84910000</i>
   <i name="PARAM1">      0.12340000</i>
   <i name="PARAM2">      1.00000000</i>
   <i name="PARAM3">      0.00000000</i>
  </separator>
  <separator name="model GW" >
   <i type="int" name="MODEL_GW">     0</i>
   <i name="MODEL_EPS0">    324.00000000</i>
   <i name="MODEL_ALPHA">      1.00000000</i>
  </separator>
  <separator name="linear response parameters" >
   <i type="logical" name="LEPSILON"> F  </i>
   <i type="logical" name="LRPA"> F  </i>
   <i type="logical" name="LNABLA"> F  </i>
   <i type="logical" name="LVEL"> F  </i>
   <i type="int" name="KINTER">     0</i>
   <i name="CSHIFT">      0.10000000</i>
   <i name="OMEGAMAX">     -1.00000000</i>
   <i name="DEG_THRESHOLD">      0.00200000</i>
   <i name="RTIME">     -0.10000000</i>
   <i name="WPLASMAI">      0.00000000</i>
   <v name="DFIELD">      0.00000000      0.00000000      0.00000000</v>
   <v name="WPLASMA">      0.00000000      0.00000000      0.00000000      0.00000000      0.00000000      0.00000000      0.00000000      0.00000000      0.00000000</v>
  </separator>
  <separator name="orbital magnetization" >
   <i type="logical" name="NUCIND"> F  </i>
   <v name="MAGPOS">      0.00000000      0.00000000      0.00000000</v>
   <i type="logical" name="LNICSALL"> T  </i>
   <i type="logical" name="ORBITALMAG"> F  </i>
   <i type="logical" name="LMAGBLOCH"> F  </i>
   <i type="logical" name="LCHIMAG"> F  </i>
   <i type="logical" name="LGAUGE"> T  </i>
   <i type="int" name="MAGATOM">     0</i>
   <v name="MAGDIPOL">      0.00000000      0.00000000      0.00000000</v>
   <v name="AVECCONST">      0.00000000      0.00000000      0.00000000</v>
  </separator>
  <separator name="response functions" >
   <i type="logical" name="LADDER"> F  </i>
   <i type="logical" name="LRPAFORCE"> F  </i>
   <i type="logical" name="LFXC"> F  </i>
   <i type="logical" name="LHARTREE"> T  </i>
   <i type="int" name="IBSE">     0</i>
   <v type="int" name="KPOINT">    -1     0     0     0</v>
   <i type="logical" name="LTCTE"> F  </i>
   <i type="logical" name="LTETE"> F  </i>
   <i type="logical" name="LTRIPLET"> F  </i>
   <i type="logical" name="LFXCEPS"> F  </i>
   <i type="logical" name="LFXHEG"> F  </i>
   <i type="int" name="NATURALO">     2</i>
   <i type="logical" name="L2ORDER"> F  </i>
   <i type="logical" name="LMP2LT"> F  </i>
   <i type="logical" name="LUSEW"> F  </i>
   <i name="ENCUTGW">     -2.00000000</i>
   <i name="ENCUTGWSOFT">     -2.00000000</i>
   <i name="ENCUTLF">     -1.00000000</i>
   <i type="int" name="LMAXMP2">    -1</i>
   <i name="SCISSOR">      0.00000000</i>
   <i type="int" name="NOMEGA">     0</i>
   <i type="int" name="NOMEGAR">     0</i>
   <i type="int" name="NBANDSGW">    -1</i>
   <i type="int" name="NBANDSO">    -1</i>
   <i type="int" name="NBANDSV">    -1</i>
   <i type="int" name="NELM">   100</i>
   <i type="int" name="NELMHF">     1</i>
   <i type="int" name="DIM">     3</i>
   <i type="int" name="ANTIRES">     0</i>
   <i name="OMEGAMAX">    -30.00000000</i>
   <i name="OMEGAMIN">    -30.00000000</i>
   <i name="OMEGATL">   -200.00000000</i>
   <i type="int" name="OMEGAGRID">   140</i>
   <i name="CSHIFT">     -0.10000000</i>
   <i type="logical" name="SELFENERGY"> F  </i>
   <i type="logical" name="LSPECTRAL"> F  </i>
   <i type="logical" name="LSPECTRALGW"> F  </i>
   <i type="logical" name="LSINGLES"> F  </i>
   <i type="logical" name="LFERMIGW"> F  </i>
   <i type="logical" name="ODDONLYGW"> F  </i>
   <i type="logical" name="EVENONLYGW"> F  </i>
   <i type="int" name="NKREDLFX">     1</i>
   <i type="int" name="NKREDLFY">     1</i>
   <i type="int" name="NKREDLFZ">     1</i>
   <i type="int" name="MAXMEM">  2800</i>
   <i type="int" name="TELESCOPE">     0</i>
   <i type="int" name="TAUPAR">     1</i>
   <i type="int" name="OMEGAPAR">    -1</i>
   <i name="LAMBDA">      1.00000000</i>
  </separator>
  <separator name="External order field" >
   <i name="OFIELD_KAPPA">      0.00000000</i>
   <v name="OFIELD_K">      0.00000000      0.00000000      0.00000000</v>
   <i name="OFIELD_Q6_NEAR">      0.00000000</i>
   <i name="OFIELD_Q6_FAR">      0.00000000</i>
   <i name="OFIELD_A">      0.00000000</i>
  </separator>
 </parameters>
 <atominfo>
  <atoms>       8 </atoms>
  <types>       1 </types>
  <array name="atoms" >
   <dimension dim="1">ion</dimension>
   <field type="string">element</field>
   <field type="int">atomtype</field>
   <set>
    <rc><c>H </c><c>   1</c></rc>
    <rc><c>H </c><c>   1</c></rc>
    <rc><c>H </c><c>   1</c></rc>
    <rc><c>H </c><c>   1</c></rc>
    <rc><c>H </c><c>   1</c></rc>
    <rc><c>H </c><c>   1</c></rc>
    <rc><c>H </c><c>   1</c></rc>
    <rc><c>H </c><c>   1</c></rc>
   </set>
  </array>
  <array name="atomtypes" >
   <dimension dim="1">type</dimension>
   <field type="int">atomspertype</field>
   <field type="string">element</field>
   <field>mass</field>
   <field>valence</field>
   <field type="string">pseudopotential</field>
   <set>
    <rc><c>   8</c><c>H </c><c>      1.00000000</c><c>      1.00000000</c><c>  PAW_PBE H 15Jun2001                   </c></rc>
   </set>
  </array>
 </atominfo>
 <structure name="initialpos" >
  <crystal>
   <varray name="basis" >
    <v>      15.00000000       0.00000000       0.00000000 </v>
    <v>       0.00000000      15.00000000       0.00000000 </v>
    <v>       0.00000000       0.00000000      19.20000000 </v>
   </varray>
   <i name="volume">   4320.00000000 </i>
   <varray name="rec_basis" >
    <v>       0.06666667      -0.00000000       0.00000000 </v>
    <v>       0.00000000       0.06666667       0.00000000 </v>
    <v>      -0.00000000      -0.00000000       0.05208333 </v>
   </varray>
  </crystal>
  <varray name="positions" >
   <v>       0.00000000       0.00000000       0.00000000 </v>
   <v>       0.00000000       0.00000000       0.12500000 </v>
   <v>       0.00000000       0.00000000       0.25000000 </v>
   <v>       0.00000000       0.00000000       0.37500000 </v>
   <v>       0.00000000       0.00000000       0.50000000 </v>
   <v>       0.00000000       0.00000000       0.62500000 </v>
   <v>       0.00000000       0.00000000       0.75000000 </v>
   <v>       0.00000000       0.00000000       0.87500000 </v>
  </varray>
 </structure>
 <calculation>
  <scstep>
   <time name="dav">    0.69    0.69</time>
   <time name="total">    1.77    1.77</time>
   <energy>
    <i name="alphaZ">      0.03609137 </i>
    <i name="ewald">     19.49332800 </i>
    <i name="hartreedc">    -82.50405326 </i>
    <i name="XCdc">     15.39414288 </i>
    <i name="pawpsdc">     17.07221949 </i>
    <i name="pawaedc">    -17.14324176 </i>
    <i name="eentropy">     -0.00000000 </i>
    <i name="bandstr">    -34.40863230 </i>
    <i name="atom">     99.56620307 </i>
    <i name="e_fr_energy">     17.50605749 </i>
    <i name="e_wo_entrp">     17.50605749 </i>
    <i name="e_0_energy">     17.50605749 </i>
   </energy>
  </scstep>
  <scstep>
   <time name="dav">    1.16    1.16</time>
   <time name="total">    1.16    1.16</time>
   <energy>
    <i name="e_fr_energy">     -4.42948400 </i>
    <i name="e_wo_entrp">     -4.42082361 </i>
    <i name="e_0_energy">     -4.42515380 </i>
   </energy>
  </scstep>
  <scstep>
   <time name="dav">    0.83    0.83</time>
   <time name="total">    0.83    0.87</time>
   <energy>
    <i name="e_fr_energy">     -6.40848997 </i>
    <i name="e_wo_entrp">     -6.19599476 </i>
    <i name="e_0_energy">     -6.30224236 </i>
   </energy>
  </scstep>
  <scstep>
   <time name="dav">    0.67    0.71</time>
   <time name="total">    0.67    0.67</time>
   <energy>
    <i name="e_fr_energy">     -6.53300538 </i>
    <i name="e_wo_entrp">     -6.30733178 </i>
    <i name="e_0_energy">     -6.42016858 </i>
   </energy>
  </scstep>
  <scstep>
   <time name="dav">    0.82    0.82</time>
   <time name="total">    1.14    1.14</time>
   <energy>
    <i name="e_fr_energy">     -6.53460080 </i>
    <i name="e_wo_entrp">     -6.30892497 </i>
    <i name="e_0_energy">     -6.42176288 </i>
   </energy>
  </scstep>
  <scstep>
   <time name="dav">    0.70    0.70</time>
   <time name="total">    2.11    2.11</time>
   <energy>
    <i name="e_fr_energy">     -6.55134454 </i>
    <i name="e_wo_entrp">     -6.32566870 </i>
    <i name="e_0_energy">     -6.43850662 </i>
   </energy>
  </scstep>
  <scstep>
   <time name="dav">    0.69    0.70</time>
   <time name="total">    2.07    2.09</time>
   <energy>
    <i name="e_fr_energy">     -6.57964986 </i>
    <i name="e_wo_entrp">     -6.35397402 </i>
    <i name="e_0_energy">     -6.46681194 </i>
   </energy>
  </scstep>
  <scstep>
   <time name="dav">    0.76    0.76</time>
   <time name="total">    2.15    2.15</time>
   <energy>
    <i name="e_fr_energy">     -6.58092238 </i>
    <i name="e_wo_entrp">     -6.35524655 </i>
    <i name="e_0_energy">     -6.46808446 </i>
   </energy>
  </scstep>
  <scstep>
   <time name="dav">    0.77    0.77</time>
   <time name="total">    2.17    2.20</time>
   <energy>
    <i name="e_fr_energy">     -6.58101660 </i>
    <i name="e_wo_entrp">     -6.35534076 </i>
    <i name="e_0_energy">     -6.46817868 </i>
   </energy>
  </scstep>
  <scstep>
   <time name="dav">    0.60    0.60</time>
   <time name="total">    1.99    1.98</time>
   <energy>
    <i name="e_fr_energy">     -6.58102911 </i>
    <i name="e_wo_entrp">     -6.35535327 </i>
    <i name="e_0_energy">     -6.46819119 </i>
   </energy>
  </scstep>
  <scstep>
   <time name="dav">    0.60    0.60</time>
   <time name="total">    2.01    2.00</time>
   <energy>
    <i name="e_fr_energy">     -6.58104154 </i>
    <i name="e_wo_entrp">     -6.35536570 </i>
    <i name="e_0_energy">     -6.46820362 </i>
   </energy>
  </scstep>
  <scstep>
   <time name="dav">    0.60    0.60</time>
   <time name="total">    2.00    2.00</time>
   <energy>
    <i name="e_fr_energy">     -6.58104543 </i>
    <i name="e_wo_entrp">     -6.35536959 </i>
    <i name="e_0_energy">     -6.46820751 </i>
   </energy>
  </scstep>
  <scstep>
   <time name="dav">    0.52    0.52</time>
   <time name="total">    1.91    1.91</time>
   <energy>
    <i name="e_fr_energy">     -6.58105031 </i>
    <i name="e_wo_entrp">     -6.35537447 </i>
    <i name="e_0_energy">     -6.46821239 </i>
   </energy>
  </scstep>
  <scstep>
   <time name="dav">    0.53    0.53</time>
   <time name="total">    1.92    1.92</time>
   <energy>
    <i name="e_fr_energy">     -6.58105407 </i>
    <i name="e_wo_entrp">     -6.35537824 </i>
    <i name="e_0_energy">     -6.46821616 </i>
   </energy>
  </scstep>
  <scstep>
   <time name="dav">    0.53    0.53</time>
   <time name="total">    1.93    1.93</time>
   <energy>
    <i name="e_fr_energy">     -6.58105522 </i>
    <i name="e_wo_entrp">     -6.35537938 </i>
    <i name="e_0_energy">     -6.46821730 </i>
   </energy>
  </scstep>
  <scstep>
   <time name="dav">    0.53    0.53</time>
   <time name="total">    1.61    1.61</time>
   <energy>
    <i name="alphaZ">      0.03609137 </i>
    <i name="ewald">     19.49332800 </i>
    <i name="hartreedc">    -80.70379478 </i>
    <i name="XCdc">     14.95942314 </i>
    <i name="pawpsdc">     18.06812779 </i>
    <i name="pawaedc">    -18.12514182 </i>
    <i name="eentropy">     -0.22567583 </i>
    <i name="bandstr">    -59.64961714 </i>
    <i name="atom">     99.56620307 </i>
    <i name="e_fr_energy">     -6.58105620 </i>
    <i name="e_wo_entrp">     -6.35538037 </i>
    <i name="e_0_energy">     -6.46821828 </i>
   </energy>
  </scstep>
  <structure>
   <crystal>
    <varray name="basis" >
     <v>      15.00000000       0.00000000       0.00000000 </v>
     <v>       0.00000000      15.00000000       0.00000000 </v>
     <v>       0.00000000       0.00000000      19.20000000 </v>
    </varray>
    <i name="volume">   4320.00000000 </i>
    <varray name="rec_basis" >
     <v>       0.06666667      -0.00000000       0.00000000 </v>
     <v>       0.00000000       0.06666667       0.00000000 </v>
     <v>      -0.00000000      -0.00000000       0.05208333 </v>
    </varray>
   </crystal>
   <varray name="positions" >
    <v>       0.00000000       0.00000000       0.00000000 </v>
    <v>       0.00000000       0.00000000       0.12500000 </v>
    <v>       0.00000000       0.00000000       0.25000000 </v>
    <v>       0.00000000       0.00000000       0.37500000 </v>
    <v>       0.00000000       0.00000000       0.50000000 </v>
    <v>       0.00000000       0.00000000       0.62500000 </v>
    <v>       0.00000000       0.00000000       0.75000000 </v>
    <v>       0.00000000       0.00000000       0.87500000 </v>
   </varray>
  </structure>
  <varray name="forces" >
   <v>       0.00000000      -0.00000000      -0.00000000 </v>
   <v>      -0.00000000       0.00000000       0.00000000 </v>
   <v>       0.00000000      -0.00000000       0.00000000 </v>
   <v>      -0.00000000      -0.00000000      -0.00000000 </v>
   <v>      -0.00000000       0.00000000       0.00000000 </v>
   <v>       0.00000000      -0.00000000       0.00000000 </v>
   <v>      -0.00000000      -0.00000000      -0.00000000 </v>
   <v>      -0.00000000       0.00000000       0.00000000 </v>
  </varray>
  <varray name="stress" >
   <v>      -0.31834471      -0.00000000      -0.00000000 </v>
   <v>      -0.00000000      -0.31834471      -0.00000000 </v>
   <v>      -0.00000000      -0.00000000      -7.02168434 </v>
  </varray>
  <energy>
   <i name="e_fr_energy">     -6.58105620 </i>
   <i name="e_wo_entrp">     -6.46821828 </i>
   <i name="e_0_energy">     -0.22567583 </i>
  </energy>
  <time name="totalsc">   29.43   29.50</time>
  <eigenvalues>
   <array>
    <dimension dim="1">band</dimension>
    <dimension dim="2">kpoint</dimension>
    <dimension dim="3">spin</dimension>
    <field>eigene</field>
    <field>occ</field>
    <set>
     <set comment="spin 1">
      <set comment="kpoint 1">
       <r>   -7.9190    1.0000 </r>
       <r>   -7.6006    1.0000 </r>
       <r>   -7.6006    1.0000 </r>
       <r>   -6.7046    0.5000 </r>
       <r>   -6.7046    0.5000 </r>
       <r>   -5.4996    0.0000 </r>
       <r>   -5.4996    0.0000 </r>
       <r>   -4.8199    0.0000 </r>
       <r>   -0.1196    0.0000 </r>
       <r>   -0.0863    0.0000 </r>
       <r>   -0.0863    0.0000 </r>
       <r>    0.2826    0.0000 </r>
      </set>
     </set>
     <set comment="spin 2">
      <set comment="kpoint 1">
       <r>   -7.9190    1.0000 </r>
       <r>   -7.6006    1.0000 </r>
       <r>   -7.6006    1.0000 </r>
       <r>   -6.7046    0.5000 </r>
       <r>   -6.7046    0.5000 </r>
       <r>   -5.4996    0.0000 </r>
       <r>   -5.4996    0.0000 </r>
       <r>   -4.8199    0.0000 </r>
       <r>   -0.1204    0.0000 </r>
       <r>   -0.0863    0.0000 </r>
       <r>   -0.0863    0.0000 </r>
       <r>    0.2818    0.0000 </r>
      </set>
     </set>
    </set>
   </array>
  </eigenvalues>
  <separator name="orbital magnetization" >
   <v name="MAGDIPOLOUT">      0.00000000      0.00000000      0.00000000</v>
  </separator>
  <dos>
   <i name="efermi">     -6.70458791 </i>
   <total>
    <array>
     <dimension dim="1">gridpoints</dimension>
     <dimension dim="2">spin</dimension>
     <field>energy</field>
     <field>total</field>
     <field>integrated</field>
     <set>
      <set comment="spin 1">
       <r>    -9.9190     0.0000     0.0000 </r>
       <r>    -9.8784     0.0000     0.0000 </r>
       <r>    -9.8377     0.0000     0.0000 </r>
       <r>    -9.7970     0.0000     0.0000 </r>
       <r>    -9.7564     0.0000     0.0000 </r>
       <r>    -9.7157     0.0000     0.0000 </r>
       <r>    -9.6750     0.0000     0.0000 </r>
       <r>    -9.6343     0.0000     0.0000 </r>
       <r>    -9.5937     0.0000     0.0000 </r>
       <r>    -9.5530     0.0000     0.0000 </r>
       <r>    -9.5123     0.0000     0.0000 </r>
       <r>    -9.4716     0.0000     0.0000 </r>
       <r>    -9.4310     0.0000     0.0000 </r>
       <r>    -9.3903     0.0000     0.0000 </r>
       <r>    -9.3496     0.0000     0.0000 </r>
       <r>    -9.3090     0.0000     0.0000 </r>
       <r>    -9.2683     0.0000     0.0000 </r>
       <r>    -9.2276     0.0000     0.0000 </r>
       <r>    -9.1869     0.0000     0.0000 </r>
       <r>    -9.1463     0.0000     0.0000 </r>
       <r>    -9.1056     0.0000     0.0000 </r>
       <r>    -9.0649     0.0000     0.0000 </r>
       <r>    -9.0243     0.0000     0.0000 </r>
       <r>    -8.9836     0.0000     0.0000 </r>
       <r>    -8.9429     0.0000     0.0000 </r>
       <r>    -8.9022     0.0000     0.0000 </r>
       <r>    -8.8616     0.0000     0.0000 </r>
       <r>    -8.8209     0.0000     0.0000 </r>
       <r>    -8.7802     0.0000     0.0000 </r>
       <r>    -8.7395     0.0000     0.0000 </r>
       <r>    -8.6989     0.0000     0.0000 </r>
       <r>    -8.6582     0.0000     0.0000 </r>
       <r>    -8.6175     0.0000     0.0000 </r>
       <r>    -8.5769     0.0001     0.0000 </r>
       <r>    -8.5362     0.0002     0.0000 </r>
       <r>    -8.4955     0.0008     0.0000 </r>
       <r>    -8.4548     0.0026     0.0002 </r>
       <r>    -8.4142     0.0077     0.0005 </r>
       <r>    -8.3735     0.0208     0.0013 </r>
       <r>    -8.3328     0.0522     0.0034 </r>
       <r>    -8.2922     0.1205     0.0083 </r>
       <r>    -8.2515     0.2560     0.0187 </r>
       <r>    -8.2108     0.5013     0.0391 </r>
       <r>    -8.1701     0.9046     0.0759 </r>
       <r>    -8.1295     1.5050     0.1371 </r>
       <r>    -8.0888     2.3108     0.2311 </r>
       <r>    -8.0481     3.2790     0.3645 </r>
       <r>    -8.0074     4.3131     0.5399 </r>
       <r>    -7.9668     5.2869     0.7549 </r>
       <r>    -7.9261     6.0957     1.0029 </r>
       <r>    -7.8854     6.7116     1.2758 </r>
       <r>    -7.8448     7.2102     1.5691 </r>
       <r>    -7.8041     7.7434     1.8840 </r>
       <r>    -7.7634     8.4583     2.2280 </r>
       <r>    -7.7227     9.3993     2.6103 </r>
       <r>    -7.6821    10.4468     3.0352 </r>
       <r>    -7.6414    11.3348     3.4962 </r>
       <r>    -7.6007    11.7488     3.9741 </r>
       <r>    -7.5601    11.4577     4.4401 </r>
       <r>    -7.5194    10.4145     4.8637 </r>
       <r>    -7.4787     8.7755     5.2206 </r>
       <r>    -7.4380     6.8346     5.4986 </r>
       <r>    -7.3974     4.9120     5.6984 </r>
       <r>    -7.3567     3.2551     5.8307 </r>
       <r>    -7.3160     1.9883     5.9116 </r>
       <r>    -7.2753     1.1204     5.9572 </r>
       <r>    -7.2347     0.5859     5.9810 </r>
       <r>    -7.1940     0.2946     5.9930 </r>
       <r>    -7.1533     0.1695     5.9999 </r>
       <r>    -7.1127     0.1673     6.0067 </r>
       <r>    -7.0720     0.2875     6.0184 </r>
       <r>    -7.0313     0.5714     6.0416 </r>
       <r>    -6.9906     1.0952     6.0862 </r>
       <r>    -6.9500     1.9487     6.1654 </r>
       <r>    -6.9093     3.1980     6.2955 </r>
       <r>    -6.8686     4.8352     6.4922 </r>
       <r>    -6.8280     6.7343     6.7661 </r>
       <r>    -6.7873     8.6397     7.1175 </r>
       <r>    -6.7466    10.2101     7.5327 </r>
       <r>    -6.7059    11.1145     7.9848 </r>
       <r>    -6.6653    11.1448     8.4381 </r>
       <r>    -6.6246    10.2940     8.8567 </r>
       <r>    -6.5839     8.7583     9.2130 </r>
       <r>    -6.5433     6.8640     9.4921 </r>
       <r>    -6.5026     4.9552     9.6937 </r>
       <r>    -6.4619     3.2951     9.8277 </r>
       <r>    -6.4212     2.0184     9.9098 </r>
       <r>    -6.3806     1.1388     9.9561 </r>
       <r>    -6.3399     0.5919     9.9802 </r>
       <r>    -6.2992     0.2834     9.9917 </r>
       <r>    -6.2585     0.1250     9.9968 </r>
       <r>    -6.2179     0.0508     9.9988 </r>
       <r>    -6.1772     0.0191     9.9996 </r>
       <r>    -6.1365     0.0068     9.9999 </r>
       <r>    -6.0959     0.0030    10.0000 </r>
       <r>    -6.0552     0.0036    10.0002 </r>
       <r>    -6.0145     0.0093    10.0005 </r>
       <r>    -5.9738     0.0259    10.0016 </r>
       <r>    -5.9332     0.0675    10.0043 </r>
       <r>    -5.8925     0.1620    10.0109 </r>
       <r>    -5.8518     0.3583    10.0255 </r>
       <r>    -5.8112     0.7298    10.0552 </r>
       <r>    -5.7705     1.3693    10.1109 </r>
       <r>    -5.7298     2.3665    10.2071 </r>
       <r>    -5.6891     3.7673    10.3604 </r>
       <r>    -5.6485     5.5242    10.5850 </r>
       <r>    -5.6078     7.4618    10.8885 </r>
       <r>    -5.5671     9.2840    11.2661 </r>
       <r>    -5.5264    10.6404    11.6989 </r>
       <r>    -5.4858    11.2332    12.1558 </r>
       <r>    -5.4451    10.9240    12.6001 </r>
       <r>    -5.4044     9.7859    12.9981 </r>
       <r>    -5.3638     8.0763    13.3266 </r>
       <r>    -5.3231     6.1431    13.5764 </r>
       <r>    -5.2824     4.3138    13.7519 </r>
       <r>    -5.2417     2.8147    13.8663 </r>
       <r>    -5.2011     1.7487    13.9375 </r>
       <r>    -5.1604     1.1224    13.9831 </r>
       <r>    -5.1197     0.8949    14.0195 </r>
       <r>    -5.0791     1.0188    14.0610 </r>
       <r>    -5.0384     1.4540    14.1201 </r>
       <r>    -4.9977     2.1560    14.2078 </r>
       <r>    -4.9570     3.0497    14.3318 </r>
       <r>    -4.9164     4.0105    14.4949 </r>
       <r>    -4.8757     4.8696    14.6930 </r>
       <r>    -4.8350     5.4498    14.9146 </r>
       <r>    -4.7943     5.6189    15.1432 </r>
       <r>    -4.7537     5.3366    15.3602 </r>
       <r>    -4.7130     4.6688    15.5501 </r>
       <r>    -4.6723     3.7625    15.7031 </r>
       <r>    -4.6317     2.7930    15.8167 </r>
       <r>    -4.5910     1.9098    15.8944 </r>
       <r>    -4.5503     1.2029    15.9433 </r>
       <r>    -4.5096     0.6979    15.9717 </r>
       <r>    -4.4690     0.3730    15.9869 </r>
       <r>    -4.4283     0.1836    15.9944 </r>
       <r>    -4.3876     0.0833    15.9978 </r>
       <r>    -4.3470     0.0348    15.9992 </r>
       <r>    -4.3063     0.0134    15.9997 </r>
       <r>    -4.2656     0.0047    15.9999 </r>
       <r>    -4.2249     0.0015    16.0000 </r>
       <r>    -4.1843     0.0005    16.0000 </r>
       <r>    -4.1436     0.0001    16.0000 </r>
       <r>    -4.1029     0.0000    16.0000 </r>
       <r>    -4.0622     0.0000    16.0000 </r>
       <r>    -4.0216     0.0000    16.0000 </r>
       <r>    -3.9809     0.0000    16.0000 </r>
       <r>    -3.9402     0.0000    16.0000 </r>
       <r>    -3.8996     0.0000    16.0000 </r>
       <r>    -3.8589     0.0000    16.0000 </r>
       <r>    -3.8182     0.0000    16.0000 </r>
       <r>    -3.7775     0.0000    16.0000 </r>
       <r>    -3.7369     0.0000    16.0000 </r>
       <r>    -3.6962     0.0000    16.0000 </r>
       <r>    -3.6555     0.0000    16.0000 </r>
       <r>    -3.6149     0.0000    16.0000 </r>
       <r>    -3.5742     0.0000    16.0000 </r>
       <r>    -3.5335     0.0000    16.0000 </r>
       <r>    -3.4928     0.0000    16.0000 </r>
       <r>    -3.4522     0.0000    16.0000 </r>
       <r>    -3.4115     0.0000    16.0000 </r>
       <r>    -3.3708     0.0000    16.0000 </r>
       <r>    -3.3302     0.0000    16.0000 </r>
       <r>    -3.2895     0.0000    16.0000 </r>
       <r>    -3.2488     0.0000    16.0000 </r>
       <r>    -3.2081     0.0000    16.0000 </r>
       <r>    -3.1675     0.0000    16.0000 </r>
       <r>    -3.1268     0.0000    16.0000 </r>
       <r>    -3.0861     0.0000    16.0000 </r>
       <r>    -3.0454     0.0000    16.0000 </r>
       <r>    -3.0048     0.0000    16.0000 </r>
       <r>    -2.9641     0.0000    16.0000 </r>
       <r>    -2.9234     0.0000    16.0000 </r>
       <r>    -2.8828     0.0000    16.0000 </r>
       <r>    -2.8421     0.0000    16.0000 </r>
       <r>    -2.8014     0.0000    16.0000 </r>
       <r>    -2.7607     0.0000    16.0000 </r>
       <r>    -2.7201     0.0000    16.0000 </r>
       <r>    -2.6794     0.0000    16.0000 </r>
       <r>    -2.6387     0.0000    16.0000 </r>
       <r>    -2.5981     0.0000    16.0000 </r>
       <r>    -2.5574     0.0000    16.0000 </r>
       <r>    -2.5167     0.0000    16.0000 </r>
       <r>    -2.4760     0.0000    16.0000 </r>
       <r>    -2.4354     0.0000    16.0000 </r>
       <r>    -2.3947     0.0000    16.0000 </r>
       <r>    -2.3540     0.0000    16.0000 </r>
       <r>    -2.3133     0.0000    16.0000 </r>
       <r>    -2.2727     0.0000    16.0000 </r>
       <r>    -2.2320     0.0000    16.0000 </r>
       <r>    -2.1913     0.0000    16.0000 </r>
       <r>    -2.1507     0.0000    16.0000 </r>
       <r>    -2.1100     0.0000    16.0000 </r>
       <r>    -2.0693     0.0000    16.0000 </r>
       <r>    -2.0286     0.0000    16.0000 </r>
       <r>    -1.9880     0.0000    16.0000 </r>
       <r>    -1.9473     0.0000    16.0000 </r>
       <r>    -1.9066     0.0000    16.0000 </r>
       <r>    -1.8660     0.0000    16.0000 </r>
       <r>    -1.8253     0.0000    16.0000 </r>
       <r>    -1.7846     0.0000    16.0000 </r>
       <r>    -1.7439     0.0000    16.0000 </r>
       <r>    -1.7033     0.0000    16.0000 </r>
       <r>    -1.6626     0.0000    16.0000 </r>
       <r>    -1.6219     0.0000    16.0000 </r>
       <r>    -1.5812     0.0000    16.0000 </r>
       <r>    -1.5406     0.0000    16.0000 </r>
       <r>    -1.4999     0.0000    16.0000 </r>
       <r>    -1.4592     0.0000    16.0000 </r>
       <r>    -1.4186     0.0000    16.0000 </r>
       <r>    -1.3779     0.0000    16.0000 </r>
       <r>    -1.3372     0.0000    16.0000 </r>
       <r>    -1.2965     0.0000    16.0000 </r>
       <r>    -1.2559     0.0000    16.0000 </r>
       <r>    -1.2152     0.0000    16.0000 </r>
       <r>    -1.1745     0.0000    16.0000 </r>
       <r>    -1.1339     0.0000    16.0000 </r>
       <r>    -1.0932     0.0000    16.0000 </r>
       <r>    -1.0525     0.0000    16.0000 </r>
       <r>    -1.0118     0.0000    16.0000 </r>
       <r>    -0.9712     0.0000    16.0000 </r>
       <r>    -0.9305     0.0000    16.0000 </r>
       <r>    -0.8898     0.0000    16.0000 </r>
       <r>    -0.8492     0.0000    16.0000 </r>
       <r>    -0.8085     0.0000    16.0000 </r>
       <r>    -0.7678     0.0001    16.0000 </r>
       <r>    -0.7271     0.0005    16.0000 </r>
       <r>    -0.6865     0.0019    16.0001 </r>
       <r>    -0.6458     0.0060    16.0004 </r>
       <r>    -0.6051     0.0180    16.0011 </r>
       <r>    -0.5644     0.0496    16.0031 </r>
       <r>    -0.5238     0.1258    16.0082 </r>
       <r>    -0.4831     0.2943    16.0202 </r>
       <r>    -0.4424     0.6351    16.0460 </r>
       <r>    -0.4018     1.2635    16.0974 </r>
       <r>    -0.3611     2.3182    16.1917 </r>
       <r>    -0.3204     3.9223    16.3512 </r>
       <r>    -0.2797     6.1202    16.6001 </r>
       <r>    -0.2391     8.8072    16.9583 </r>
       <r>    -0.1984    11.6902    17.4338 </r>
       <r>    -0.1577    14.3168    18.0161 </r>
       <r>    -0.1171    16.1879    18.6745 </r>
       <r>    -0.0764    16.9227    19.3628 </r>
       <r>    -0.0357    16.4050    20.0300 </r>
       <r>     0.0050    14.8392    20.6336 </r>
       <r>     0.0456    12.6802    21.1493 </r>
       <r>     0.0863    10.4691    21.5751 </r>
       <r>     0.1270     8.6473    21.9268 </r>
       <r>     0.1677     7.4292    22.2290 </r>
       <r>     0.2083     6.7759    22.5045 </r>
       <r>     0.2490     6.4655    22.7675 </r>
       <r>     0.2897     6.2162    23.0203 </r>
       <r>     0.3303     5.8040    23.2564 </r>
       <r>     0.3710     5.1328    23.4652 </r>
       <r>     0.4117     4.2396    23.6376 </r>
       <r>     0.4524     3.2472    23.7697 </r>
       <r>     0.4930     2.2982    23.8631 </r>
       <r>     0.5337     1.5005    23.9242 </r>
       <r>     0.5744     0.9031    23.9609 </r>
       <r>     0.6150     0.5008    23.9813 </r>
       <r>     0.6557     0.2559    23.9917 </r>
       <r>     0.6964     0.1204    23.9966 </r>
       <r>     0.7371     0.0522    23.9987 </r>
       <r>     0.7777     0.0208    23.9995 </r>
       <r>     0.8184     0.0077    23.9998 </r>
       <r>     0.8591     0.0026    24.0000 </r>
       <r>     0.8998     0.0008    24.0000 </r>
       <r>     0.9404     0.0002    24.0000 </r>
       <r>     0.9811     0.0001    24.0000 </r>
       <r>     1.0218     0.0000    24.0000 </r>
       <r>     1.0624     0.0000    24.0000 </r>
       <r>     1.1031     0.0000    24.0000 </r>
       <r>     1.1438     0.0000    24.0000 </r>
       <r>     1.1845     0.0000    24.0000 </r>
       <r>     1.2251     0.0000    24.0000 </r>
       <r>     1.2658     0.0000    24.0000 </r>
       <r>     1.3065     0.0000    24.0000 </r>
       <r>     1.3471     0.0000    24.0000 </r>
       <r>     1.3878     0.0000    24.0000 </r>
       <r>     1.4285     0.0000    24.0000 </r>
       <r>     1.4692     0.0000    24.0000 </r>
       <r>     1.5098     0.0000    24.0000 </r>
       <r>     1.5505     0.0000    24.0000 </r>
       <r>     1.5912     0.0000    24.0000 </r>
       <r>     1.6319     0.0000    24.0000 </r>
       <r>     1.6725     0.0000    24.0000 </r>
       <r>     1.7132     0.0000    24.0000 </r>
       <r>     1.7539     0.0000    24.0000 </r>
       <r>     1.7945     0.0000    24.0000 </r>
       <r>     1.8352     0.0000    24.0000 </r>
       <r>     1.8759     0.0000    24.0000 </r>
       <r>     1.9166     0.0000    24.0000 </r>
       <r>     1.9572     0.0000    24.0000 </r>
       <r>     1.9979     0.0000    24.0000 </r>
       <r>     2.0386     0.0000    24.0000 </r>
       <r>     2.0792     0.0000    24.0000 </r>
       <r>     2.1199     0.0000    24.0000 </r>
       <r>     2.1606     0.0000    24.0000 </r>
       <r>     2.2013     0.0000    24.0000 </r>
       <r>     2.2419     0.0000    24.0000 </r>
       <r>     2.2826     0.0000    24.0000 </r>
      </set>
      <set comment="spin 2">
       <r>    -9.9190     0.0000     0.0000 </r>
       <r>    -9.8784     0.0000     0.0000 </r>
       <r>    -9.8377     0.0000     0.0000 </r>
       <r>    -9.7970     0.0000     0.0000 </r>
       <r>    -9.7564     0.0000     0.0000 </r>
       <r>    -9.7157     0.0000     0.0000 </r>
       <r>    -9.6750     0.0000     0.0000 </r>
       <r>    -9.6343     0.0000     0.0000 </r>
       <r>    -9.5937     0.0000     0.0000 </r>
       <r>    -9.5530     0.0000     0.0000 </r>
       <r>    -9.5123     0.0000     0.0000 </r>
       <r>    -9.4716     0.0000     0.0000 </r>
       <r>    -9.4310     0.0000     0.0000 </r>
       <r>    -9.3903     0.0000     0.0000 </r>
       <r>    -9.3496     0.0000     0.0000 </r>
       <r>    -9.3090     0.0000     0.0000 </r>
       <r>    -9.2683     0.0000     0.0000 </r>
       <r>    -9.2276     0.0000     0.0000 </r>
       <r>    -9.1869     0.0000     0.0000 </r>
       <r>    -9.1463     0.0000     0.0000 </r>
       <r>    -9.1056     0.0000     0.0000 </r>
       <r>    -9.0649     0.0000     0.0000 </r>
       <r>    -9.0243     0.0000     0.0000 </r>
       <r>    -8.9836     0.0000     0.0000 </r>
       <r>    -8.9429     0.0000     0.0000 </r>
       <r>    -8.9022     0.0000     0.0000 </r>
       <r>    -8.8616     0.0000     0.0000 </r>
       <r>    -8.8209     0.0000     0.0000 </r>
       <r>    -8.7802     0.0000     0.0000 </r>
       <r>    -8.7395     0.0000     0.0000 </r>
       <r>    -8.6989     0.0000     0.0000 </r>
       <r>    -8.6582     0.0000     0.0000 </r>
       <r>    -8.6175     0.0000     0.0000 </r>
       <r>    -8.5769     0.0001     0.0000 </r>
       <r>    -8.5362     0.0002     0.0000 </r>
       <r>    -8.4955     0.0008     0.0000 </r>
       <r>    -8.4548     0.0026     0.0002 </r>
       <r>    -8.4142     0.0077     0.0005 </r>
       <r>    -8.3735     0.0208     0.0013 </r>
       <r>    -8.3328     0.0522     0.0034 </r>
       <r>    -8.2922     0.1204     0.0083 </r>
       <r>    -8.2515     0.2560     0.0187 </r>
       <r>    -8.2108     0.5012     0.0391 </r>
       <r>    -8.1701     0.9045     0.0759 </r>
       <r>    -8.1295     1.5050     0.1371 </r>
       <r>    -8.0888     2.3107     0.2311 </r>
       <r>    -8.0481     3.2790     0.3645 </r>
       <r>    -8.0074     4.3130     0.5399 </r>
       <r>    -7.9668     5.2868     0.7549 </r>
       <r>    -7.9261     6.0957     1.0028 </r>
       <r>    -7.8854     6.7115     1.2758 </r>
       <r>    -7.8448     7.2102     1.5691 </r>
       <r>    -7.8041     7.7434     1.8840 </r>
       <r>    -7.7634     8.4583     2.2280 </r>
       <r>    -7.7227     9.3993     2.6103 </r>
       <r>    -7.6821    10.4467     3.0352 </r>
       <r>    -7.6414    11.3348     3.4962 </r>
       <r>    -7.6007    11.7488     3.9741 </r>
       <r>    -7.5601    11.4578     4.4401 </r>
       <r>    -7.5194    10.4146     4.8637 </r>
       <r>    -7.4787     8.7756     5.2206 </r>
       <r>    -7.4380     6.8347     5.4986 </r>
       <r>    -7.3974     4.9121     5.6983 </r>
       <r>    -7.3567     3.2552     5.8307 </r>
       <r>    -7.3160     1.9884     5.9116 </r>
       <r>    -7.2753     1.1204     5.9572 </r>
       <r>    -7.2347     0.5859     5.9810 </r>
       <r>    -7.1940     0.2946     5.9930 </r>
       <r>    -7.1533     0.1695     5.9999 </r>
       <r>    -7.1127     0.1673     6.0067 </r>
       <r>    -7.0720     0.2875     6.0184 </r>
       <r>    -7.0313     0.5714     6.0416 </r>
       <r>    -6.9906     1.0952     6.0862 </r>
       <r>    -6.9500     1.9487     6.1654 </r>
       <r>    -6.9093     3.1979     6.2955 </r>
       <r>    -6.8686     4.8351     6.4921 </r>
       <r>    -6.8280     6.7342     6.7660 </r>
       <r>    -6.7873     8.6396     7.1174 </r>
       <r>    -6.7466    10.2101     7.5327 </r>
       <r>    -6.7059    11.1145     7.9848 </r>
       <r>    -6.6653    11.1448     8.4380 </r>
       <r>    -6.6246    10.2940     8.8567 </r>
       <r>    -6.5839     8.7583     9.2129 </r>
       <r>    -6.5433     6.8641     9.4921 </r>
       <r>    -6.5026     4.9553     9.6937 </r>
       <r>    -6.4619     3.2952     9.8277 </r>
       <r>    -6.4212     2.0184     9.9098 </r>
       <r>    -6.3806     1.1389     9.9561 </r>
       <r>    -6.3399     0.5919     9.9802 </r>
       <r>    -6.2992     0.2834     9.9917 </r>
       <r>    -6.2585     0.1250     9.9968 </r>
       <r>    -6.2179     0.0508     9.9988 </r>
       <r>    -6.1772     0.0191     9.9996 </r>
       <r>    -6.1365     0.0068     9.9999 </r>
       <r>    -6.0959     0.0030    10.0000 </r>
       <r>    -6.0552     0.0036    10.0002 </r>
       <r>    -6.0145     0.0093    10.0005 </r>
       <r>    -5.9738     0.0259    10.0016 </r>
       <r>    -5.9332     0.0675    10.0043 </r>
       <r>    -5.8925     0.1620    10.0109 </r>
       <r>    -5.8518     0.3583    10.0255 </r>
       <r>    -5.8112     0.7298    10.0552 </r>
       <r>    -5.7705     1.3693    10.1109 </r>
       <r>    -5.7298     2.3664    10.2071 </r>
       <r>    -5.6891     3.7672    10.3603 </r>
       <r>    -5.6485     5.5241    10.5850 </r>
       <r>    -5.6078     7.4617    10.8885 </r>
       <r>    -5.5671     9.2839    11.2661 </r>
       <r>    -5.5264    10.6403    11.6989 </r>
       <r>    -5.4858    11.2332    12.1557 </r>
       <r>    -5.4451    10.9241    12.6001 </r>
       <r>    -5.4044     9.7860    12.9981 </r>
       <r>    -5.3638     8.0763    13.3266 </r>
       <r>    -5.3231     6.1432    13.5764 </r>
       <r>    -5.2824     4.3138    13.7519 </r>
       <r>    -5.2417     2.8147    13.8663 </r>
       <r>    -5.2011     1.7487    13.9375 </r>
       <r>    -5.1604     1.1224    13.9831 </r>
       <r>    -5.1197     0.8949    14.0195 </r>
       <r>    -5.0791     1.0188    14.0610 </r>
       <r>    -5.0384     1.4539    14.1201 </r>
       <r>    -4.9977     2.1559    14.2078 </r>
       <r>    -4.9570     3.0497    14.3318 </r>
       <r>    -4.9164     4.0105    14.4949 </r>
       <r>    -4.8757     4.8696    14.6930 </r>
       <r>    -4.8350     5.4497    14.9146 </r>
       <r>    -4.7943     5.6189    15.1432 </r>
       <r>    -4.7537     5.3366    15.3602 </r>
       <r>    -4.7130     4.6689    15.5501 </r>
       <r>    -4.6723     3.7626    15.7031 </r>
       <r>    -4.6317     2.7931    15.8167 </r>
       <r>    -4.5910     1.9099    15.8944 </r>
       <r>    -4.5503     1.2030    15.9433 </r>
       <r>    -4.5096     0.6979    15.9717 </r>
       <r>    -4.4690     0.3730    15.9869 </r>
       <r>    -4.4283     0.1836    15.9944 </r>
       <r>    -4.3876     0.0833    15.9978 </r>
       <r>    -4.3470     0.0348    15.9992 </r>
       <r>    -4.3063     0.0134    15.9997 </r>
       <r>    -4.2656     0.0047    15.9999 </r>
       <r>    -4.2249     0.0015    16.0000 </r>
       <r>    -4.1843     0.0005    16.0000 </r>
       <r>    -4.1436     0.0001    16.0000 </r>
       <r>    -4.1029     0.0000    16.0000 </r>
       <r>    -4.0622     0.0000    16.0000 </r>
       <r>    -4.0216     0.0000    16.0000 </r>
       <r>    -3.9809     0.0000    16.0000 </r>
       <r>    -3.9402     0.0000    16.0000 </r>
       <r>    -3.8996     0.0000    16.0000 </r>
       <r>    -3.8589     0.0000    16.0000 </r>
       <r>    -3.8182     0.0000    16.0000 </r>
       <r>    -3.7775     0.0000    16.0000 </r>
       <r>    -3.7369     0.0000    16.0000 </r>
       <r>    -3.6962     0.0000    16.0000 </r>
       <r>    -3.6555     0.0000    16.0000 </r>
       <r>    -3.6149     0.0000    16.0000 </r>
       <r>    -3.5742     0.0000    16.0000 </r>
       <r>    -3.5335     0.0000    16.0000 </r>
       <r>    -3.4928     0.0000    16.0000 </r>
       <r>    -3.4522     0.0000    16.0000 </r>
       <r>    -3.4115     0.0000    16.0000 </r>
       <r>    -3.3708     0.0000    16.0000 </r>
       <r>    -3.3302     0.0000    16.0000 </r>
       <r>    -3.2895     0.0000    16.0000 </r>
       <r>    -3.2488     0.0000    16.0000 </r>
       <r>    -3.2081     0.0000    16.0000 </r>
       <r>    -3.1675     0.0000    16.0000 </r>
       <r>    -3.1268     0.0000    16.0000 </r>
       <r>    -3.0861     0.0000    16.0000 </r>
       <r>    -3.0454     0.0000    16.0000 </r>
       <r>    -3.0048     0.0000    16.0000 </r>
       <r>    -2.9641     0.0000    16.0000 </r>
       <r>    -2.9234     0.0000    16.0000 </r>
       <r>    -2.8828     0.0000    16.0000 </r>
       <r>    -2.8421     0.0000    16.0000 </r>
       <r>    -2.8014     0.0000    16.0000 </r>
       <r>    -2.7607     0.0000    16.0000 </r>
       <r>    -2.7201     0.0000    16.0000 </r>
       <r>    -2.6794     0.0000    16.0000 </r>
       <r>    -2.6387     0.0000    16.0000 </r>
       <r>    -2.5981     0.0000    16.0000 </r>
       <r>    -2.5574     0.0000    16.0000 </r>
       <r>    -2.5167     0.0000    16.0000 </r>
       <r>    -2.4760     0.0000    16.0000 </r>
       <r>    -2.4354     0.0000    16.0000 </r>
       <r>    -2.3947     0.0000    16.0000 </r>
       <r>    -2.3540     0.0000    16.0000 </r>
       <r>    -2.3133     0.0000    16.0000 </r>
       <r>    -2.2727     0.0000    16.0000 </r>
       <r>    -2.2320     0.0000    16.0000 </r>
       <r>    -2.1913     0.0000    16.0000 </r>
       <r>    -2.1507     0.0000    16.0000 </r>
       <r>    -2.1100     0.0000    16.0000 </r>
       <r>    -2.0693     0.0000    16.0000 </r>
       <r>    -2.0286     0.0000    16.0000 </r>
       <r>    -1.9880     0.0000    16.0000 </r>
       <r>    -1.9473     0.0000    16.0000 </r>
       <r>    -1.9066     0.0000    16.0000 </r>
       <r>    -1.8660     0.0000    16.0000 </r>
       <r>    -1.8253     0.0000    16.0000 </r>
       <r>    -1.7846     0.0000    16.0000 </r>
       <r>    -1.7439     0.0000    16.0000 </r>
       <r>    -1.7033     0.0000    16.0000 </r>
       <r>    -1.6626     0.0000    16.0000 </r>
       <r>    -1.6219     0.0000    16.0000 </r>
       <r>    -1.5812     0.0000    16.0000 </r>
       <r>    -1.5406     0.0000    16.0000 </r>
       <r>    -1.4999     0.0000    16.0000 </r>
       <r>    -1.4592     0.0000    16.0000 </r>
       <r>    -1.4186     0.0000    16.0000 </r>
       <r>    -1.3779     0.0000    16.0000 </r>
       <r>    -1.3372     0.0000    16.0000 </r>
       <r>    -1.2965     0.0000    16.0000 </r>
       <r>    -1.2559     0.0000    16.0000 </r>
       <r>    -1.2152     0.0000    16.0000 </r>
       <r>    -1.1745     0.0000    16.0000 </r>
       <r>    -1.1339     0.0000    16.0000 </r>
       <r>    -1.0932     0.0000    16.0000 </r>
       <r>    -1.0525     0.0000    16.0000 </r>
       <r>    -1.0118     0.0000    16.0000 </r>
       <r>    -0.9712     0.0000    16.0000 </r>
       <r>    -0.9305     0.0000    16.0000 </r>
       <r>    -0.8898     0.0000    16.0000 </r>
       <r>    -0.8492     0.0000    16.0000 </r>
       <r>    -0.8085     0.0000    16.0000 </r>
       <r>    -0.7678     0.0001    16.0000 </r>
       <r>    -0.7271     0.0005    16.0000 </r>
       <r>    -0.6865     0.0019    16.0001 </r>
       <r>    -0.6458     0.0061    16.0004 </r>
       <r>    -0.6051     0.0182    16.0011 </r>
       <r>    -0.5644     0.0501    16.0031 </r>
       <r>    -0.5238     0.1269    16.0083 </r>
       <r>    -0.4831     0.2966    16.0204 </r>
       <r>    -0.4424     0.6393    16.0464 </r>
       <r>    -0.4018     1.2708    16.0981 </r>
       <r>    -0.3611     2.3294    16.1928 </r>
       <r>    -0.3204     3.9377    16.3529 </r>
       <r>    -0.2797     6.1392    16.6026 </r>
       <r>    -0.2391     8.8277    16.9617 </r>
       <r>    -0.1984    11.7090    17.4379 </r>
       <r>    -0.1577    14.3304    18.0208 </r>
       <r>    -0.1171    16.1937    18.6794 </r>
       <r>    -0.0764    16.9201    19.3676 </r>
       <r>    -0.0357    16.3961    20.0344 </r>
       <r>     0.0050    14.8278    20.6375 </r>
       <r>     0.0456    12.6709    21.1529 </r>
       <r>     0.0863    10.4653    21.5785 </r>
       <r>     0.1270     8.6503    21.9303 </r>
       <r>     0.1677     7.4373    22.2328 </r>
       <r>     0.2083     6.7856    22.5088 </r>
       <r>     0.2490     6.4724    22.7721 </r>
       <r>     0.2897     6.2168    23.0249 </r>
       <r>     0.3303     5.7968    23.2607 </r>
       <r>     0.3710     5.1187    23.4689 </r>
       <r>     0.4117     4.2213    23.6406 </r>
       <r>     0.4524     3.2280    23.7718 </r>
       <r>     0.4930     2.2809    23.8646 </r>
       <r>     0.5337     1.4868    23.9251 </r>
       <r>     0.5744     0.8934    23.9614 </r>
       <r>     0.6150     0.4946    23.9815 </r>
       <r>     0.6557     0.2523    23.9918 </r>
       <r>     0.6964     0.1186    23.9966 </r>
       <r>     0.7371     0.0513    23.9987 </r>
       <r>     0.7777     0.0205    23.9995 </r>
       <r>     0.8184     0.0075    23.9999 </r>
       <r>     0.8591     0.0025    24.0000 </r>
       <r>     0.8998     0.0008    24.0000 </r>
       <r>     0.9404     0.0002    24.0000 </r>
       <r>     0.9811     0.0001    24.0000 </r>
       <r>     1.0218     0.0000    24.0000 </r>
       <r>     1.0624     0.0000    24.0000 </r>
       <r>     1.1031     0.0000    24.0000 </r>
       <r>     1.1438     0.0000    24.0000 </r>
       <r>     1.1845     0.0000    24.0000 </r>
       <r>     1.2251     0.0000    24.0000 </r>
       <r>     1.2658     0.0000    24.0000 </r>
       <r>     1.3065     0.0000    24.0000 </r>
       <r>     1.3471     0.0000    24.0000 </r>
       <r>     1.3878     0.0000    24.0000 </r>
       <r>     1.4285     0.0000    24.0000 </r>
       <r>     1.4692     0.0000    24.0000 </r>
       <r>     1.5098     0.0000    24.0000 </r>
       <r>     1.5505     0.0000    24.0000 </r>
       <r>     1.5912     0.0000    24.0000 </r>
       <r>     1.6319     0.0000    24.0000 </r>
       <r>     1.6725     0.0000    24.0000 </r>
       <r>     1.7132     0.0000    24.0000 </r>
       <r>     1.7539     0.0000    24.0000 </r>
       <r>     1.7945     0.0000    24.0000 </r>
       <r>     1.8352     0.0000    24.0000 </r>
       <r>     1.8759     0.0000    24.0000 </r>
       <r>     1.9166     0.0000    24.0000 </r>
       <r>     1.9572     0.0000    24.0000 </r>
       <r>     1.9979     0.0000    24.0000 </r>
       <r>     2.0386     0.0000    24.0000 </r>
       <r>     2.0792     0.0000    24.0000 </r>
       <r>     2.1199     0.0000    24.0000 </r>
       <r>     2.1606     0.0000    24.0000 </r>
       <r>     2.2013     0.0000    24.0000 </r>
       <r>     2.2419     0.0000    24.0000 </r>
       <r>     2.2826     0.0000    24.0000 </r>
      </set>
     </set>
    </array>
   </total>
  </dos>
 </calculation>
 <structure name="finalpos" >
  <crystal>
   <varray name="basis" >
    <v>      15.00000000       0.00000000       0.00000000 </v>
    <v>       0.00000000      15.00000000       0.00000000 </v>
    <v>       0.00000000       0.00000000      19.20000000 </v>
   </varray>
   <i name="volume">   4320.00000000 </i>
   <varray name="rec_basis" >
    <v>       0.06666667      -0.00000000       0.00000000 </v>
    <v>       0.00000000       0.06666667       0.00000000 </v>
    <v>      -0.00000000      -0.00000000       0.05208333 </v>
   </varray>
  </crystal>
  <varray name="positions" >
   <v>       0.00000000       0.00000000       0.00000000 </v>
   <v>       0.00000000       0.00000000       0.12500000 </v>
   <v>       0.00000000       0.00000000       0.25000000 </v>
   <v>       0.00000000       0.00000000       0.37500000 </v>
   <v>       0.00000000       0.00000000       0.50000000 </v>
   <v>       0.00000000       0.00000000       0.62500000 </v>
   <v>       0.00000000       0.00000000       0.75000000 </v>
   <v>       0.00000000       0.00000000       0.87500000 </v>
  </varray>
 </structure>
</modeling>
