    8    8   50    1
  0.2000000E+03  0.1600000E-08  0.1000000E-08  0.1000000E-08  0.5000000E-15
  1.000000000000000E-004
  CAR 
 unknown system                          
      8     12     16
